Sconfig 0.00000 tap: on snoop: rts? on errs? on
Sconfig 0.00000 salvage: on !bd replies? on
Sconfig 0.00000 grat error: on grat reply: on
Sconfig 0.00000 $reply for props: on ring 0 search: on
Sconfig 0.00000 using MOBICACHE
s -t 1.000000000 -Hs 1 -Hd -2 -Ni 1 -Nx 472.93 -Ny 156.69 -Nz 0.00 -Ne -1.000000 -Nl AGT -Nw --- -Ma 0 -Md 0 -Ms 0 -Mt 0 -Is 1.0 -Id 0.0 -It cbr -Il 512 -If 0 -Ii 0 -Iv 32 -Pn cbr -Pi 0 -Pf 0 -Po 0 
r -t 1.000000000 -Hs 1 -Hd -2 -Ni 1 -Nx 472.93 -Ny 156.69 -Nz 0.00 -Ne -1.000000 -Nl RTR -Nw --- -Ma 0 -Md 0 -Ms 0 -Mt 0 -Is 1.0 -Id 0.0 -It cbr -Il 512 -If 0 -Ii 0 -Iv 32 -Pn cbr -Pi 0 -Pf 0 -Po 0 
s -t 1.000000000 -Hs 2 -Hd -2 -Ni 2 -Nx 166.78 -Ny 483.39 -Nz 0.00 -Ne -1.000000 -Nl AGT -Nw --- -Ma 0 -Md 0 -Ms 0 -Mt 0 -Is 2.0 -Id 0.1 -It cbr -Il 512 -If 0 -Ii 2 -Iv 32 -Pn cbr -Pi 0 -Pf 0 -Po 0 
r -t 1.000000000 -Hs 2 -Hd -2 -Ni 2 -Nx 166.78 -Ny 483.39 -Nz 0.00 -Ne -1.000000 -Nl RTR -Nw --- -Ma 0 -Md 0 -Ms 0 -Mt 0 -Is 2.0 -Id 0.1 -It cbr -Il 512 -If 0 -Ii 2 -Iv 32 -Pn cbr -Pi 0 -Pf 0 -Po 0 
s -t 1.000000000 -Hs 3 -Hd -2 -Ni 3 -Nx 405.86 -Ny 336.98 -Nz 0.00 -Ne -1.000000 -Nl AGT -Nw --- -Ma 0 -Md 0 -Ms 0 -Mt 0 -Is 3.0 -Id 0.2 -It cbr -Il 512 -If 0 -Ii 4 -Iv 32 -Pn cbr -Pi 0 -Pf 0 -Po 0 
r -t 1.000000000 -Hs 3 -Hd -2 -Ni 3 -Nx 405.86 -Ny 336.98 -Nz 0.00 -Ne -1.000000 -Nl RTR -Nw --- -Ma 0 -Md 0 -Ms 0 -Mt 0 -Is 3.0 -Id 0.2 -It cbr -Il 512 -If 0 -Ii 4 -Iv 32 -Pn cbr -Pi 0 -Pf 0 -Po 0 
s -t 1.000000000 -Hs 4 -Hd -2 -Ni 4 -Nx 77.14 -Ny 457.84 -Nz 0.00 -Ne -1.000000 -Nl AGT -Nw --- -Ma 0 -Md 0 -Ms 0 -Mt 0 -Is 4.0 -Id 0.3 -It cbr -Il 512 -If 0 -Ii 6 -Iv 32 -Pn cbr -Pi 0 -Pf 0 -Po 0 
r -t 1.000000000 -Hs 4 -Hd -2 -Ni 4 -Nx 77.14 -Ny 457.84 -Nz 0.00 -Ne -1.000000 -Nl RTR -Nw --- -Ma 0 -Md 0 -Ms 0 -Mt 0 -Is 4.0 -Id 0.3 -It cbr -Il 512 -If 0 -Ii 6 -Iv 32 -Pn cbr -Pi 0 -Pf 0 -Po 0 
s -t 1.000000000 -Hs 5 -Hd -2 -Ni 5 -Nx 251.28 -Ny 178.35 -Nz 0.00 -Ne -1.000000 -Nl AGT -Nw --- -Ma 0 -Md 0 -Ms 0 -Mt 0 -Is 5.0 -Id 0.4 -It cbr -Il 512 -If 0 -Ii 8 -Iv 32 -Pn cbr -Pi 0 -Pf 0 -Po 0 
r -t 1.000000000 -Hs 5 -Hd -2 -Ni 5 -Nx 251.28 -Ny 178.35 -Nz 0.00 -Ne -1.000000 -Nl RTR -Nw --- -Ma 0 -Md 0 -Ms 0 -Mt 0 -Is 5.0 -Id 0.4 -It cbr -Il 512 -If 0 -Ii 8 -Iv 32 -Pn cbr -Pi 0 -Pf 0 -Po 0 
s -t 1.000000000 -Hs 6 -Hd -2 -Ni 6 -Nx 5.55 -Ny 349.23 -Nz 0.00 -Ne -1.000000 -Nl AGT -Nw --- -Ma 0 -Md 0 -Ms 0 -Mt 0 -Is 6.0 -Id 0.5 -It cbr -Il 512 -If 0 -Ii 10 -Iv 32 -Pn cbr -Pi 0 -Pf 0 -Po 0 
r -t 1.000000000 -Hs 6 -Hd -2 -Ni 6 -Nx 5.55 -Ny 349.23 -Nz 0.00 -Ne -1.000000 -Nl RTR -Nw --- -Ma 0 -Md 0 -Ms 0 -Mt 0 -Is 6.0 -Id 0.5 -It cbr -Il 512 -If 0 -Ii 10 -Iv 32 -Pn cbr -Pi 0 -Pf 0 -Po 0 
s -t 1.000000000 -Hs 7 -Hd -2 -Ni 7 -Nx 478.88 -Ny 334.38 -Nz 0.00 -Ne -1.000000 -Nl AGT -Nw --- -Ma 0 -Md 0 -Ms 0 -Mt 0 -Is 7.0 -Id 0.6 -It cbr -Il 512 -If 0 -Ii 12 -Iv 32 -Pn cbr -Pi 0 -Pf 0 -Po 0 
r -t 1.000000000 -Hs 7 -Hd -2 -Ni 7 -Nx 478.88 -Ny 334.38 -Nz 0.00 -Ne -1.000000 -Nl RTR -Nw --- -Ma 0 -Md 0 -Ms 0 -Mt 0 -Is 7.0 -Id 0.6 -It cbr -Il 512 -If 0 -Ii 12 -Iv 32 -Pn cbr -Pi 0 -Pf 0 -Po 0 
s -t 1.000000000 -Hs 8 -Hd -2 -Ni 8 -Nx 278.48 -Ny 193.01 -Nz 0.00 -Ne -1.000000 -Nl AGT -Nw --- -Ma 0 -Md 0 -Ms 0 -Mt 0 -Is 8.0 -Id 0.7 -It cbr -Il 512 -If 0 -Ii 14 -Iv 32 -Pn cbr -Pi 0 -Pf 0 -Po 0 
r -t 1.000000000 -Hs 8 -Hd -2 -Ni 8 -Nx 278.48 -Ny 193.01 -Nz 0.00 -Ne -1.000000 -Nl RTR -Nw --- -Ma 0 -Md 0 -Ms 0 -Mt 0 -Is 8.0 -Id 0.7 -It cbr -Il 512 -If 0 -Ii 14 -Iv 32 -Pn cbr -Pi 0 -Pf 0 -Po 0 
s -t 1.000000000 -Hs 9 -Hd -2 -Ni 9 -Nx 129.27 -Ny 147.29 -Nz 0.00 -Ne -1.000000 -Nl AGT -Nw --- -Ma 0 -Md 0 -Ms 0 -Mt 0 -Is 9.0 -Id 0.8 -It cbr -Il 512 -If 0 -Ii 16 -Iv 32 -Pn cbr -Pi 0 -Pf 0 -Po 0 
r -t 1.000000000 -Hs 9 -Hd -2 -Ni 9 -Nx 129.27 -Ny 147.29 -Nz 0.00 -Ne -1.000000 -Nl RTR -Nw --- -Ma 0 -Md 0 -Ms 0 -Mt 0 -Is 9.0 -Id 0.8 -It cbr -Il 512 -If 0 -Ii 16 -Iv 32 -Pn cbr -Pi 0 -Pf 0 -Po 0 
s -t 1.000000000 -Hs 10 -Hd -2 -Ni 10 -Nx 257.81 -Ny 354.50 -Nz 0.00 -Ne -1.000000 -Nl AGT -Nw --- -Ma 0 -Md 0 -Ms 0 -Mt 0 -Is 10.0 -Id 0.9 -It cbr -Il 512 -If 0 -Ii 18 -Iv 32 -Pn cbr -Pi 0 -Pf 0 -Po 0 
r -t 1.000000000 -Hs 10 -Hd -2 -Ni 10 -Nx 257.81 -Ny 354.50 -Nz 0.00 -Ne -1.000000 -Nl RTR -Nw --- -Ma 0 -Md 0 -Ms 0 -Mt 0 -Is 10.0 -Id 0.9 -It cbr -Il 512 -If 0 -Ii 18 -Iv 32 -Pn cbr -Pi 0 -Pf 0 -Po 0 
s -t 1.000000000 -Hs 11 -Hd -2 -Ni 11 -Nx 402.36 -Ny 222.79 -Nz 0.00 -Ne -1.000000 -Nl AGT -Nw --- -Ma 0 -Md 0 -Ms 0 -Mt 0 -Is 11.0 -Id 0.10 -It cbr -Il 512 -If 0 -Ii 20 -Iv 32 -Pn cbr -Pi 0 -Pf 0 -Po 0 
r -t 1.000000000 -Hs 11 -Hd -2 -Ni 11 -Nx 402.36 -Ny 222.79 -Nz 0.00 -Ne -1.000000 -Nl RTR -Nw --- -Ma 0 -Md 0 -Ms 0 -Mt 0 -Is 11.0 -Id 0.10 -It cbr -Il 512 -If 0 -Ii 20 -Iv 32 -Pn cbr -Pi 0 -Pf 0 -Po 0 
s -t 1.000000000 -Hs 12 -Hd -2 -Ni 12 -Nx 446.28 -Ny 2.48 -Nz 0.00 -Ne -1.000000 -Nl AGT -Nw --- -Ma 0 -Md 0 -Ms 0 -Mt 0 -Is 12.0 -Id 0.11 -It cbr -Il 512 -If 0 -Ii 22 -Iv 32 -Pn cbr -Pi 0 -Pf 0 -Po 0 
r -t 1.000000000 -Hs 12 -Hd -2 -Ni 12 -Nx 446.28 -Ny 2.48 -Nz 0.00 -Ne -1.000000 -Nl RTR -Nw --- -Ma 0 -Md 0 -Ms 0 -Mt 0 -Is 12.0 -Id 0.11 -It cbr -Il 512 -If 0 -Ii 22 -Iv 32 -Pn cbr -Pi 0 -Pf 0 -Po 0 
s -t 1.000000000 -Hs 13 -Hd -2 -Ni 13 -Nx 126.16 -Ny 296.96 -Nz 0.00 -Ne -1.000000 -Nl AGT -Nw --- -Ma 0 -Md 0 -Ms 0 -Mt 0 -Is 13.0 -Id 0.12 -It cbr -Il 512 -If 0 -Ii 24 -Iv 32 -Pn cbr -Pi 0 -Pf 0 -Po 0 
r -t 1.000000000 -Hs 13 -Hd -2 -Ni 13 -Nx 126.16 -Ny 296.96 -Nz 0.00 -Ne -1.000000 -Nl RTR -Nw --- -Ma 0 -Md 0 -Ms 0 -Mt 0 -Is 13.0 -Id 0.12 -It cbr -Il 512 -If 0 -Ii 24 -Iv 32 -Pn cbr -Pi 0 -Pf 0 -Po 0 
s -t 1.000000000 -Hs 14 -Hd -2 -Ni 14 -Nx 64.51 -Ny 103.17 -Nz 0.00 -Ne -1.000000 -Nl AGT -Nw --- -Ma 0 -Md 0 -Ms 0 -Mt 0 -Is 14.0 -Id 0.13 -It cbr -Il 512 -If 0 -Ii 26 -Iv 32 -Pn cbr -Pi 0 -Pf 0 -Po 0 
r -t 1.000000000 -Hs 14 -Hd -2 -Ni 14 -Nx 64.51 -Ny 103.17 -Nz 0.00 -Ne -1.000000 -Nl RTR -Nw --- -Ma 0 -Md 0 -Ms 0 -Mt 0 -Is 14.0 -Id 0.13 -It cbr -Il 512 -If 0 -Ii 26 -Iv 32 -Pn cbr -Pi 0 -Pf 0 -Po 0 
s -t 1.000000000 -Hs 15 -Hd -2 -Ni 15 -Nx 277.28 -Ny 117.94 -Nz 0.00 -Ne -1.000000 -Nl AGT -Nw --- -Ma 0 -Md 0 -Ms 0 -Mt 0 -Is 15.0 -Id 0.14 -It cbr -Il 512 -If 0 -Ii 28 -Iv 32 -Pn cbr -Pi 0 -Pf 0 -Po 0 
r -t 1.000000000 -Hs 15 -Hd -2 -Ni 15 -Nx 277.28 -Ny 117.94 -Nz 0.00 -Ne -1.000000 -Nl RTR -Nw --- -Ma 0 -Md 0 -Ms 0 -Mt 0 -Is 15.0 -Id 0.14 -It cbr -Il 512 -If 0 -Ii 28 -Iv 32 -Pn cbr -Pi 0 -Pf 0 -Po 0 
s -t 1.000000000 -Hs 16 -Hd -2 -Ni 16 -Nx 491.81 -Ny 36.22 -Nz 0.00 -Ne -1.000000 -Nl AGT -Nw --- -Ma 0 -Md 0 -Ms 0 -Mt 0 -Is 16.0 -Id 0.15 -It cbr -Il 512 -If 0 -Ii 30 -Iv 32 -Pn cbr -Pi 0 -Pf 0 -Po 0 
r -t 1.000000000 -Hs 16 -Hd -2 -Ni 16 -Nx 491.81 -Ny 36.22 -Nz 0.00 -Ne -1.000000 -Nl RTR -Nw --- -Ma 0 -Md 0 -Ms 0 -Mt 0 -Is 16.0 -Id 0.15 -It cbr -Il 512 -If 0 -Ii 30 -Iv 32 -Pn cbr -Pi 0 -Pf 0 -Po 0 
s -t 1.000000000 -Hs 17 -Hd -2 -Ni 17 -Nx 266.85 -Ny 239.90 -Nz 0.00 -Ne -1.000000 -Nl AGT -Nw --- -Ma 0 -Md 0 -Ms 0 -Mt 0 -Is 17.0 -Id 0.16 -It cbr -Il 512 -If 0 -Ii 32 -Iv 32 -Pn cbr -Pi 0 -Pf 0 -Po 0 
r -t 1.000000000 -Hs 17 -Hd -2 -Ni 17 -Nx 266.85 -Ny 239.90 -Nz 0.00 -Ne -1.000000 -Nl RTR -Nw --- -Ma 0 -Md 0 -Ms 0 -Mt 0 -Is 17.0 -Id 0.16 -It cbr -Il 512 -If 0 -Ii 32 -Iv 32 -Pn cbr -Pi 0 -Pf 0 -Po 0 
s -t 1.000000000 -Hs 18 -Hd -2 -Ni 18 -Nx 155.15 -Ny 266.96 -Nz 0.00 -Ne -1.000000 -Nl AGT -Nw --- -Ma 0 -Md 0 -Ms 0 -Mt 0 -Is 18.0 -Id 0.17 -It cbr -Il 512 -If 0 -Ii 34 -Iv 32 -Pn cbr -Pi 0 -Pf 0 -Po 0 
r -t 1.000000000 -Hs 18 -Hd -2 -Ni 18 -Nx 155.15 -Ny 266.96 -Nz 0.00 -Ne -1.000000 -Nl RTR -Nw --- -Ma 0 -Md 0 -Ms 0 -Mt 0 -Is 18.0 -Id 0.17 -It cbr -Il 512 -If 0 -Ii 34 -Iv 32 -Pn cbr -Pi 0 -Pf 0 -Po 0 
s -t 1.000000000 -Hs 19 -Hd -2 -Ni 19 -Nx 32.92 -Ny 118.19 -Nz 0.00 -Ne -1.000000 -Nl AGT -Nw --- -Ma 0 -Md 0 -Ms 0 -Mt 0 -Is 19.0 -Id 0.18 -It cbr -Il 512 -If 0 -Ii 36 -Iv 32 -Pn cbr -Pi 0 -Pf 0 -Po 0 
r -t 1.000000000 -Hs 19 -Hd -2 -Ni 19 -Nx 32.92 -Ny 118.19 -Nz 0.00 -Ne -1.000000 -Nl RTR -Nw --- -Ma 0 -Md 0 -Ms 0 -Mt 0 -Is 19.0 -Id 0.18 -It cbr -Il 512 -If 0 -Ii 36 -Iv 32 -Pn cbr -Pi 0 -Pf 0 -Po 0 
s -t 1.000000000 -Hs 20 -Hd -2 -Ni 20 -Nx 465.86 -Ny 391.52 -Nz 0.00 -Ne -1.000000 -Nl AGT -Nw --- -Ma 0 -Md 0 -Ms 0 -Mt 0 -Is 20.0 -Id 0.19 -It cbr -Il 512 -If 0 -Ii 38 -Iv 32 -Pn cbr -Pi 0 -Pf 0 -Po 0 
r -t 1.000000000 -Hs 20 -Hd -2 -Ni 20 -Nx 465.86 -Ny 391.52 -Nz 0.00 -Ne -1.000000 -Nl RTR -Nw --- -Ma 0 -Md 0 -Ms 0 -Mt 0 -Is 20.0 -Id 0.19 -It cbr -Il 512 -If 0 -Ii 38 -Iv 32 -Pn cbr -Pi 0 -Pf 0 -Po 0 
s -t 1.000000000 -Hs 21 -Hd -2 -Ni 21 -Nx 490.47 -Ny 66.24 -Nz 0.00 -Ne -1.000000 -Nl AGT -Nw --- -Ma 0 -Md 0 -Ms 0 -Mt 0 -Is 21.0 -Id 0.20 -It cbr -Il 512 -If 0 -Ii 40 -Iv 32 -Pn cbr -Pi 0 -Pf 0 -Po 0 
r -t 1.000000000 -Hs 21 -Hd -2 -Ni 21 -Nx 490.47 -Ny 66.24 -Nz 0.00 -Ne -1.000000 -Nl RTR -Nw --- -Ma 0 -Md 0 -Ms 0 -Mt 0 -Is 21.0 -Id 0.20 -It cbr -Il 512 -If 0 -Ii 40 -Iv 32 -Pn cbr -Pi 0 -Pf 0 -Po 0 
s -t 1.000000000 -Hs 22 -Hd -2 -Ni 22 -Nx 406.82 -Ny 178.01 -Nz 0.00 -Ne -1.000000 -Nl AGT -Nw --- -Ma 0 -Md 0 -Ms 0 -Mt 0 -Is 22.0 -Id 0.21 -It cbr -Il 512 -If 0 -Ii 42 -Iv 32 -Pn cbr -Pi 0 -Pf 0 -Po 0 
r -t 1.000000000 -Hs 22 -Hd -2 -Ni 22 -Nx 406.82 -Ny 178.01 -Nz 0.00 -Ne -1.000000 -Nl RTR -Nw --- -Ma 0 -Md 0 -Ms 0 -Mt 0 -Is 22.0 -Id 0.21 -It cbr -Il 512 -If 0 -Ii 42 -Iv 32 -Pn cbr -Pi 0 -Pf 0 -Po 0 
s -t 1.000000000 -Hs 23 -Hd -2 -Ni 23 -Nx 277.46 -Ny 408.42 -Nz 0.00 -Ne -1.000000 -Nl AGT -Nw --- -Ma 0 -Md 0 -Ms 0 -Mt 0 -Is 23.0 -Id 0.22 -It cbr -Il 512 -If 0 -Ii 44 -Iv 32 -Pn cbr -Pi 0 -Pf 0 -Po 0 
r -t 1.000000000 -Hs 23 -Hd -2 -Ni 23 -Nx 277.46 -Ny 408.42 -Nz 0.00 -Ne -1.000000 -Nl RTR -Nw --- -Ma 0 -Md 0 -Ms 0 -Mt 0 -Is 23.0 -Id 0.22 -It cbr -Il 512 -If 0 -Ii 44 -Iv 32 -Pn cbr -Pi 0 -Pf 0 -Po 0 
s -t 1.000000000 -Hs 24 -Hd -2 -Ni 24 -Nx 401.05 -Ny 55.99 -Nz 0.00 -Ne -1.000000 -Nl AGT -Nw --- -Ma 0 -Md 0 -Ms 0 -Mt 0 -Is 24.0 -Id 0.23 -It cbr -Il 512 -If 0 -Ii 46 -Iv 32 -Pn cbr -Pi 0 -Pf 0 -Po 0 
r -t 1.000000000 -Hs 24 -Hd -2 -Ni 24 -Nx 401.05 -Ny 55.99 -Nz 0.00 -Ne -1.000000 -Nl RTR -Nw --- -Ma 0 -Md 0 -Ms 0 -Mt 0 -Is 24.0 -Id 0.23 -It cbr -Il 512 -If 0 -Ii 46 -Iv 32 -Pn cbr -Pi 0 -Pf 0 -Po 0 
s -t 1.000000000 -Hs 25 -Hd -2 -Ni 25 -Nx 268.38 -Ny 23.68 -Nz 0.00 -Ne -1.000000 -Nl AGT -Nw --- -Ma 0 -Md 0 -Ms 0 -Mt 0 -Is 25.0 -Id 0.24 -It cbr -Il 512 -If 0 -Ii 48 -Iv 32 -Pn cbr -Pi 0 -Pf 0 -Po 0 
r -t 1.000000000 -Hs 25 -Hd -2 -Ni 25 -Nx 268.38 -Ny 23.68 -Nz 0.00 -Ne -1.000000 -Nl RTR -Nw --- -Ma 0 -Md 0 -Ms 0 -Mt 0 -Is 25.0 -Id 0.24 -It cbr -Il 512 -If 0 -Ii 48 -Iv 32 -Pn cbr -Pi 0 -Pf 0 -Po 0 
s -t 1.000000000 -Hs 26 -Hd -2 -Ni 26 -Nx 165.23 -Ny 476.80 -Nz 0.00 -Ne -1.000000 -Nl AGT -Nw --- -Ma 0 -Md 0 -Ms 0 -Mt 0 -Is 26.0 -Id 0.25 -It cbr -Il 512 -If 0 -Ii 50 -Iv 32 -Pn cbr -Pi 0 -Pf 0 -Po 0 
r -t 1.000000000 -Hs 26 -Hd -2 -Ni 26 -Nx 165.23 -Ny 476.80 -Nz 0.00 -Ne -1.000000 -Nl RTR -Nw --- -Ma 0 -Md 0 -Ms 0 -Mt 0 -Is 26.0 -Id 0.25 -It cbr -Il 512 -If 0 -Ii 50 -Iv 32 -Pn cbr -Pi 0 -Pf 0 -Po 0 
s -t 1.000000000 -Hs 27 -Hd -2 -Ni 27 -Nx 149.20 -Ny 144.74 -Nz 0.00 -Ne -1.000000 -Nl AGT -Nw --- -Ma 0 -Md 0 -Ms 0 -Mt 0 -Is 27.0 -Id 0.26 -It cbr -Il 512 -If 0 -Ii 52 -Iv 32 -Pn cbr -Pi 0 -Pf 0 -Po 0 
r -t 1.000000000 -Hs 27 -Hd -2 -Ni 27 -Nx 149.20 -Ny 144.74 -Nz 0.00 -Ne -1.000000 -Nl RTR -Nw --- -Ma 0 -Md 0 -Ms 0 -Mt 0 -Is 27.0 -Id 0.26 -It cbr -Il 512 -If 0 -Ii 52 -Iv 32 -Pn cbr -Pi 0 -Pf 0 -Po 0 
s -t 1.000000000 -Hs 28 -Hd -2 -Ni 28 -Nx 457.56 -Ny 261.38 -Nz 0.00 -Ne -1.000000 -Nl AGT -Nw --- -Ma 0 -Md 0 -Ms 0 -Mt 0 -Is 28.0 -Id 0.27 -It cbr -Il 512 -If 0 -Ii 54 -Iv 32 -Pn cbr -Pi 0 -Pf 0 -Po 0 
r -t 1.000000000 -Hs 28 -Hd -2 -Ni 28 -Nx 457.56 -Ny 261.38 -Nz 0.00 -Ne -1.000000 -Nl RTR -Nw --- -Ma 0 -Md 0 -Ms 0 -Mt 0 -Is 28.0 -Id 0.27 -It cbr -Il 512 -If 0 -Ii 54 -Iv 32 -Pn cbr -Pi 0 -Pf 0 -Po 0 
s -t 1.000000000 -Hs 29 -Hd -2 -Ni 29 -Nx 155.42 -Ny 58.30 -Nz 0.00 -Ne -1.000000 -Nl AGT -Nw --- -Ma 0 -Md 0 -Ms 0 -Mt 0 -Is 29.0 -Id 0.28 -It cbr -Il 512 -If 0 -Ii 56 -Iv 32 -Pn cbr -Pi 0 -Pf 0 -Po 0 
r -t 1.000000000 -Hs 29 -Hd -2 -Ni 29 -Nx 155.42 -Ny 58.30 -Nz 0.00 -Ne -1.000000 -Nl RTR -Nw --- -Ma 0 -Md 0 -Ms 0 -Mt 0 -Is 29.0 -Id 0.28 -It cbr -Il 512 -If 0 -Ii 56 -Iv 32 -Pn cbr -Pi 0 -Pf 0 -Po 0 
s -t 1.000000000 -Hs 30 -Hd -2 -Ni 30 -Nx 327.36 -Ny 382.11 -Nz 0.00 -Ne -1.000000 -Nl AGT -Nw --- -Ma 0 -Md 0 -Ms 0 -Mt 0 -Is 30.0 -Id 0.29 -It cbr -Il 512 -If 0 -Ii 58 -Iv 32 -Pn cbr -Pi 0 -Pf 0 -Po 0 
r -t 1.000000000 -Hs 30 -Hd -2 -Ni 30 -Nx 327.36 -Ny 382.11 -Nz 0.00 -Ne -1.000000 -Nl RTR -Nw --- -Ma 0 -Md 0 -Ms 0 -Mt 0 -Is 30.0 -Id 0.29 -It cbr -Il 512 -If 0 -Ii 58 -Iv 32 -Pn cbr -Pi 0 -Pf 0 -Po 0 
s -t 1.000000000 -Hs 31 -Hd -2 -Ni 31 -Nx 476.11 -Ny 289.99 -Nz 0.00 -Ne -1.000000 -Nl AGT -Nw --- -Ma 0 -Md 0 -Ms 0 -Mt 0 -Is 31.0 -Id 0.30 -It cbr -Il 512 -If 0 -Ii 60 -Iv 32 -Pn cbr -Pi 0 -Pf 0 -Po 0 
r -t 1.000000000 -Hs 31 -Hd -2 -Ni 31 -Nx 476.11 -Ny 289.99 -Nz 0.00 -Ne -1.000000 -Nl RTR -Nw --- -Ma 0 -Md 0 -Ms 0 -Mt 0 -Is 31.0 -Id 0.30 -It cbr -Il 512 -If 0 -Ii 60 -Iv 32 -Pn cbr -Pi 0 -Pf 0 -Po 0 
s -t 1.000000000 -Hs 32 -Hd -2 -Ni 32 -Nx 365.34 -Ny 374.14 -Nz 0.00 -Ne -1.000000 -Nl AGT -Nw --- -Ma 0 -Md 0 -Ms 0 -Mt 0 -Is 32.0 -Id 0.31 -It cbr -Il 512 -If 0 -Ii 62 -Iv 32 -Pn cbr -Pi 0 -Pf 0 -Po 0 
r -t 1.000000000 -Hs 32 -Hd -2 -Ni 32 -Nx 365.34 -Ny 374.14 -Nz 0.00 -Ne -1.000000 -Nl RTR -Nw --- -Ma 0 -Md 0 -Ms 0 -Mt 0 -Is 32.0 -Id 0.31 -It cbr -Il 512 -If 0 -Ii 62 -Iv 32 -Pn cbr -Pi 0 -Pf 0 -Po 0 
s -t 1.000000000 -Hs 33 -Hd -2 -Ni 33 -Nx 305.42 -Ny 112.16 -Nz 0.00 -Ne -1.000000 -Nl AGT -Nw --- -Ma 0 -Md 0 -Ms 0 -Mt 0 -Is 33.0 -Id 0.32 -It cbr -Il 512 -If 0 -Ii 64 -Iv 32 -Pn cbr -Pi 0 -Pf 0 -Po 0 
r -t 1.000000000 -Hs 33 -Hd -2 -Ni 33 -Nx 305.42 -Ny 112.16 -Nz 0.00 -Ne -1.000000 -Nl RTR -Nw --- -Ma 0 -Md 0 -Ms 0 -Mt 0 -Is 33.0 -Id 0.32 -It cbr -Il 512 -If 0 -Ii 64 -Iv 32 -Pn cbr -Pi 0 -Pf 0 -Po 0 
s -t 1.000000000 -Hs 34 -Hd -2 -Ni 34 -Nx 288.13 -Ny 437.65 -Nz 0.00 -Ne -1.000000 -Nl AGT -Nw --- -Ma 0 -Md 0 -Ms 0 -Mt 0 -Is 34.0 -Id 0.33 -It cbr -Il 512 -If 0 -Ii 66 -Iv 32 -Pn cbr -Pi 0 -Pf 0 -Po 0 
r -t 1.000000000 -Hs 34 -Hd -2 -Ni 34 -Nx 288.13 -Ny 437.65 -Nz 0.00 -Ne -1.000000 -Nl RTR -Nw --- -Ma 0 -Md 0 -Ms 0 -Mt 0 -Is 34.0 -Id 0.33 -It cbr -Il 512 -If 0 -Ii 66 -Iv 32 -Pn cbr -Pi 0 -Pf 0 -Po 0 
s -t 1.000000000 -Hs 35 -Hd -2 -Ni 35 -Nx 198.60 -Ny 447.25 -Nz 0.00 -Ne -1.000000 -Nl AGT -Nw --- -Ma 0 -Md 0 -Ms 0 -Mt 0 -Is 35.0 -Id 0.34 -It cbr -Il 512 -If 0 -Ii 68 -Iv 32 -Pn cbr -Pi 0 -Pf 0 -Po 0 
r -t 1.000000000 -Hs 35 -Hd -2 -Ni 35 -Nx 198.60 -Ny 447.25 -Nz 0.00 -Ne -1.000000 -Nl RTR -Nw --- -Ma 0 -Md 0 -Ms 0 -Mt 0 -Is 35.0 -Id 0.34 -It cbr -Il 512 -If 0 -Ii 68 -Iv 32 -Pn cbr -Pi 0 -Pf 0 -Po 0 
s -t 1.000000000 -Hs 36 -Hd -2 -Ni 36 -Nx 262.50 -Ny 313.43 -Nz 0.00 -Ne -1.000000 -Nl AGT -Nw --- -Ma 0 -Md 0 -Ms 0 -Mt 0 -Is 36.0 -Id 0.35 -It cbr -Il 512 -If 0 -Ii 70 -Iv 32 -Pn cbr -Pi 0 -Pf 0 -Po 0 
r -t 1.000000000 -Hs 36 -Hd -2 -Ni 36 -Nx 262.50 -Ny 313.43 -Nz 0.00 -Ne -1.000000 -Nl RTR -Nw --- -Ma 0 -Md 0 -Ms 0 -Mt 0 -Is 36.0 -Id 0.35 -It cbr -Il 512 -If 0 -Ii 70 -Iv 32 -Pn cbr -Pi 0 -Pf 0 -Po 0 
s -t 1.000000000 -Hs 37 -Hd -2 -Ni 37 -Nx 372.62 -Ny 228.08 -Nz 0.00 -Ne -1.000000 -Nl AGT -Nw --- -Ma 0 -Md 0 -Ms 0 -Mt 0 -Is 37.0 -Id 0.36 -It cbr -Il 512 -If 0 -Ii 72 -Iv 32 -Pn cbr -Pi 0 -Pf 0 -Po 0 
r -t 1.000000000 -Hs 37 -Hd -2 -Ni 37 -Nx 372.62 -Ny 228.08 -Nz 0.00 -Ne -1.000000 -Nl RTR -Nw --- -Ma 0 -Md 0 -Ms 0 -Mt 0 -Is 37.0 -Id 0.36 -It cbr -Il 512 -If 0 -Ii 72 -Iv 32 -Pn cbr -Pi 0 -Pf 0 -Po 0 
s -t 1.000000000 -Hs 38 -Hd -2 -Ni 38 -Nx 51.99 -Ny 258.79 -Nz 0.00 -Ne -1.000000 -Nl AGT -Nw --- -Ma 0 -Md 0 -Ms 0 -Mt 0 -Is 38.0 -Id 0.37 -It cbr -Il 512 -If 0 -Ii 74 -Iv 32 -Pn cbr -Pi 0 -Pf 0 -Po 0 
r -t 1.000000000 -Hs 38 -Hd -2 -Ni 38 -Nx 51.99 -Ny 258.79 -Nz 0.00 -Ne -1.000000 -Nl RTR -Nw --- -Ma 0 -Md 0 -Ms 0 -Mt 0 -Is 38.0 -Id 0.37 -It cbr -Il 512 -If 0 -Ii 74 -Iv 32 -Pn cbr -Pi 0 -Pf 0 -Po 0 
s -t 1.000000000 -Hs 39 -Hd -2 -Ni 39 -Nx 55.58 -Ny 302.67 -Nz 0.00 -Ne -1.000000 -Nl AGT -Nw --- -Ma 0 -Md 0 -Ms 0 -Mt 0 -Is 39.0 -Id 0.38 -It cbr -Il 512 -If 0 -Ii 76 -Iv 32 -Pn cbr -Pi 0 -Pf 0 -Po 0 
r -t 1.000000000 -Hs 39 -Hd -2 -Ni 39 -Nx 55.58 -Ny 302.67 -Nz 0.00 -Ne -1.000000 -Nl RTR -Nw --- -Ma 0 -Md 0 -Ms 0 -Mt 0 -Is 39.0 -Id 0.38 -It cbr -Il 512 -If 0 -Ii 76 -Iv 32 -Pn cbr -Pi 0 -Pf 0 -Po 0 
s -t 1.000000000 -Hs 40 -Hd -2 -Ni 40 -Nx 160.99 -Ny 141.16 -Nz 0.00 -Ne -1.000000 -Nl AGT -Nw --- -Ma 0 -Md 0 -Ms 0 -Mt 0 -Is 40.0 -Id 0.39 -It cbr -Il 512 -If 0 -Ii 78 -Iv 32 -Pn cbr -Pi 0 -Pf 0 -Po 0 
r -t 1.000000000 -Hs 40 -Hd -2 -Ni 40 -Nx 160.99 -Ny 141.16 -Nz 0.00 -Ne -1.000000 -Nl RTR -Nw --- -Ma 0 -Md 0 -Ms 0 -Mt 0 -Is 40.0 -Id 0.39 -It cbr -Il 512 -If 0 -Ii 78 -Iv 32 -Pn cbr -Pi 0 -Pf 0 -Po 0 
s -t 1.000000000 -Hs 41 -Hd -2 -Ni 41 -Nx 303.69 -Ny 66.65 -Nz 0.00 -Ne -1.000000 -Nl AGT -Nw --- -Ma 0 -Md 0 -Ms 0 -Mt 0 -Is 41.0 -Id 0.40 -It cbr -Il 512 -If 0 -Ii 80 -Iv 32 -Pn cbr -Pi 0 -Pf 0 -Po 0 
r -t 1.000000000 -Hs 41 -Hd -2 -Ni 41 -Nx 303.69 -Ny 66.65 -Nz 0.00 -Ne -1.000000 -Nl RTR -Nw --- -Ma 0 -Md 0 -Ms 0 -Mt 0 -Is 41.0 -Id 0.40 -It cbr -Il 512 -If 0 -Ii 80 -Iv 32 -Pn cbr -Pi 0 -Pf 0 -Po 0 
s -t 1.000000000 -Hs 42 -Hd -2 -Ni 42 -Nx 140.24 -Ny 162.18 -Nz 0.00 -Ne -1.000000 -Nl AGT -Nw --- -Ma 0 -Md 0 -Ms 0 -Mt 0 -Is 42.0 -Id 0.41 -It cbr -Il 512 -If 0 -Ii 82 -Iv 32 -Pn cbr -Pi 0 -Pf 0 -Po 0 
r -t 1.000000000 -Hs 42 -Hd -2 -Ni 42 -Nx 140.24 -Ny 162.18 -Nz 0.00 -Ne -1.000000 -Nl RTR -Nw --- -Ma 0 -Md 0 -Ms 0 -Mt 0 -Is 42.0 -Id 0.41 -It cbr -Il 512 -If 0 -Ii 82 -Iv 32 -Pn cbr -Pi 0 -Pf 0 -Po 0 
s -t 1.000000000 -Hs 43 -Hd -2 -Ni 43 -Nx 451.99 -Ny 408.72 -Nz 0.00 -Ne -1.000000 -Nl AGT -Nw --- -Ma 0 -Md 0 -Ms 0 -Mt 0 -Is 43.0 -Id 0.42 -It cbr -Il 512 -If 0 -Ii 84 -Iv 32 -Pn cbr -Pi 0 -Pf 0 -Po 0 
r -t 1.000000000 -Hs 43 -Hd -2 -Ni 43 -Nx 451.99 -Ny 408.72 -Nz 0.00 -Ne -1.000000 -Nl RTR -Nw --- -Ma 0 -Md 0 -Ms 0 -Mt 0 -Is 43.0 -Id 0.42 -It cbr -Il 512 -If 0 -Ii 84 -Iv 32 -Pn cbr -Pi 0 -Pf 0 -Po 0 
s -t 1.000000000 -Hs 44 -Hd -2 -Ni 44 -Nx 332.41 -Ny 457.99 -Nz 0.00 -Ne -1.000000 -Nl AGT -Nw --- -Ma 0 -Md 0 -Ms 0 -Mt 0 -Is 44.0 -Id 0.43 -It cbr -Il 512 -If 0 -Ii 86 -Iv 32 -Pn cbr -Pi 0 -Pf 0 -Po 0 
r -t 1.000000000 -Hs 44 -Hd -2 -Ni 44 -Nx 332.41 -Ny 457.99 -Nz 0.00 -Ne -1.000000 -Nl RTR -Nw --- -Ma 0 -Md 0 -Ms 0 -Mt 0 -Is 44.0 -Id 0.43 -It cbr -Il 512 -If 0 -Ii 86 -Iv 32 -Pn cbr -Pi 0 -Pf 0 -Po 0 
s -t 1.000000000 -Hs 45 -Hd -2 -Ni 45 -Nx 361.74 -Ny 332.26 -Nz 0.00 -Ne -1.000000 -Nl AGT -Nw --- -Ma 0 -Md 0 -Ms 0 -Mt 0 -Is 45.0 -Id 0.44 -It cbr -Il 512 -If 0 -Ii 88 -Iv 32 -Pn cbr -Pi 0 -Pf 0 -Po 0 
r -t 1.000000000 -Hs 45 -Hd -2 -Ni 45 -Nx 361.74 -Ny 332.26 -Nz 0.00 -Ne -1.000000 -Nl RTR -Nw --- -Ma 0 -Md 0 -Ms 0 -Mt 0 -Is 45.0 -Id 0.44 -It cbr -Il 512 -If 0 -Ii 88 -Iv 32 -Pn cbr -Pi 0 -Pf 0 -Po 0 
s -t 1.000000000 -Hs 46 -Hd -2 -Ni 46 -Nx 455.64 -Ny 431.83 -Nz 0.00 -Ne -1.000000 -Nl AGT -Nw --- -Ma 0 -Md 0 -Ms 0 -Mt 0 -Is 46.0 -Id 0.45 -It cbr -Il 512 -If 0 -Ii 90 -Iv 32 -Pn cbr -Pi 0 -Pf 0 -Po 0 
r -t 1.000000000 -Hs 46 -Hd -2 -Ni 46 -Nx 455.64 -Ny 431.83 -Nz 0.00 -Ne -1.000000 -Nl RTR -Nw --- -Ma 0 -Md 0 -Ms 0 -Mt 0 -Is 46.0 -Id 0.45 -It cbr -Il 512 -If 0 -Ii 90 -Iv 32 -Pn cbr -Pi 0 -Pf 0 -Po 0 
s -t 1.000000000 -Hs 47 -Hd -2 -Ni 47 -Nx 397.33 -Ny 409.87 -Nz 0.00 -Ne -1.000000 -Nl AGT -Nw --- -Ma 0 -Md 0 -Ms 0 -Mt 0 -Is 47.0 -Id 0.46 -It cbr -Il 512 -If 0 -Ii 92 -Iv 32 -Pn cbr -Pi 0 -Pf 0 -Po 0 
r -t 1.000000000 -Hs 47 -Hd -2 -Ni 47 -Nx 397.33 -Ny 409.87 -Nz 0.00 -Ne -1.000000 -Nl RTR -Nw --- -Ma 0 -Md 0 -Ms 0 -Mt 0 -Is 47.0 -Id 0.46 -It cbr -Il 512 -If 0 -Ii 92 -Iv 32 -Pn cbr -Pi 0 -Pf 0 -Po 0 
s -t 1.000000000 -Hs 48 -Hd -2 -Ni 48 -Nx 385.14 -Ny 133.35 -Nz 0.00 -Ne -1.000000 -Nl AGT -Nw --- -Ma 0 -Md 0 -Ms 0 -Mt 0 -Is 48.0 -Id 0.47 -It cbr -Il 512 -If 0 -Ii 94 -Iv 32 -Pn cbr -Pi 0 -Pf 0 -Po 0 
r -t 1.000000000 -Hs 48 -Hd -2 -Ni 48 -Nx 385.14 -Ny 133.35 -Nz 0.00 -Ne -1.000000 -Nl RTR -Nw --- -Ma 0 -Md 0 -Ms 0 -Mt 0 -Is 48.0 -Id 0.47 -It cbr -Il 512 -If 0 -Ii 94 -Iv 32 -Pn cbr -Pi 0 -Pf 0 -Po 0 
s -t 1.000000000 -Hs 49 -Hd -2 -Ni 49 -Nx 90.48 -Ny 165.42 -Nz 0.00 -Ne -1.000000 -Nl AGT -Nw --- -Ma 0 -Md 0 -Ms 0 -Mt 0 -Is 49.0 -Id 0.48 -It cbr -Il 512 -If 0 -Ii 96 -Iv 32 -Pn cbr -Pi 0 -Pf 0 -Po 0 
r -t 1.000000000 -Hs 49 -Hd -2 -Ni 49 -Nx 90.48 -Ny 165.42 -Nz 0.00 -Ne -1.000000 -Nl RTR -Nw --- -Ma 0 -Md 0 -Ms 0 -Mt 0 -Is 49.0 -Id 0.48 -It cbr -Il 512 -If 0 -Ii 96 -Iv 32 -Pn cbr -Pi 0 -Pf 0 -Po 0 
s -t 1.000091296 -Hs 25 -Hd -1 -Ni 25 -Nx 268.38 -Ny 23.68 -Nz 0.00 -Ne -1.000000 -Nl RTR -Nw --- -Ma 0 -Md 0 -Ms 0 -Mt 0 -Is 25.255 -Id 0.255 -It DSR -Il 32 -If 0 -Ii 49 -Iv 32 -P dsr -Ph 1 -Pq 1 -Ps 1 -Pp 0 -Pn 1 -Pl 0 -Pe 0->0 -Pw 0 -Pm 0 -Pc 0 -Pb 0->0 
s -t 1.000107215 -Hs 33 -Hd -1 -Ni 33 -Nx 305.42 -Ny 112.16 -Nz 0.00 -Ne -1.000000 -Nl RTR -Nw --- -Ma 0 -Md 0 -Ms 0 -Mt 0 -Is 33.255 -Id 0.255 -It DSR -Il 32 -If 0 -Ii 65 -Iv 32 -P dsr -Ph 1 -Pq 1 -Ps 1 -Pp 0 -Pn 1 -Pl 0 -Pe 0->0 -Pw 0 -Pm 0 -Pc 0 -Pb 0->0 
s -t 1.000359043 -Hs 37 -Hd -1 -Ni 37 -Nx 372.62 -Ny 228.08 -Nz 0.00 -Ne -1.000000 -Nl RTR -Nw --- -Ma 0 -Md 0 -Ms 0 -Mt 0 -Is 37.255 -Id 0.255 -It DSR -Il 32 -If 0 -Ii 73 -Iv 32 -P dsr -Ph 1 -Pq 1 -Ps 1 -Pp 0 -Pn 1 -Pl 0 -Pe 0->0 -Pw 0 -Pm 0 -Pc 0 -Pb 0->0 
s -t 1.000457527 -Hs 44 -Hd -1 -Ni 44 -Nx 332.41 -Ny 457.99 -Nz 0.00 -Ne -1.000000 -Nl RTR -Nw --- -Ma 0 -Md 0 -Ms 0 -Mt 0 -Is 44.255 -Id 0.255 -It DSR -Il 32 -If 0 -Ii 87 -Iv 32 -P dsr -Ph 1 -Pq 1 -Ps 1 -Pp 0 -Pn 1 -Pl 0 -Pe 0->0 -Pw 0 -Pm 0 -Pc 0 -Pb 0->0 
s -t 1.000478335 -Hs 39 -Hd -1 -Ni 39 -Nx 55.58 -Ny 302.67 -Nz 0.00 -Ne -1.000000 -Nl RTR -Nw --- -Ma 0 -Md 0 -Ms 0 -Mt 0 -Is 39.255 -Id 0.255 -It DSR -Il 32 -If 0 -Ii 77 -Iv 32 -P dsr -Ph 1 -Pq 1 -Ps 1 -Pp 0 -Pn 1 -Pl 0 -Pe 0->0 -Pw 0 -Pm 0 -Pc 0 -Pb 0->0 
s -t 1.000606886 -Hs 32 -Hd -1 -Ni 32 -Nx 365.34 -Ny 374.14 -Nz 0.00 -Ne -1.000000 -Nl RTR -Nw --- -Ma 0 -Md 0 -Ms 0 -Mt 0 -Is 32.255 -Id 0.255 -It DSR -Il 32 -If 0 -Ii 63 -Iv 32 -P dsr -Ph 1 -Pq 1 -Ps 1 -Pp 0 -Pn 1 -Pl 0 -Pe 0->0 -Pw 0 -Pm 0 -Pc 0 -Pb 0->0 
s -t 1.000671889 -Hs 5 -Hd -1 -Ni 5 -Nx 251.28 -Ny 178.35 -Nz 0.00 -Ne -1.000000 -Nl RTR -Nw --- -Ma 0 -Md 0 -Ms 0 -Mt 0 -Is 5.255 -Id 0.255 -It DSR -Il 32 -If 0 -Ii 9 -Iv 32 -P dsr -Ph 1 -Pq 1 -Ps 1 -Pp 0 -Pn 1 -Pl 0 -Pe 0->0 -Pw 0 -Pm 0 -Pc 0 -Pb 0->0 
s -t 1.000899731 -Hs 35 -Hd -1 -Ni 35 -Nx 198.60 -Ny 447.25 -Nz 0.00 -Ne -1.000000 -Nl RTR -Nw --- -Ma 0 -Md 0 -Ms 0 -Mt 0 -Is 35.255 -Id 0.255 -It DSR -Il 32 -If 0 -Ii 69 -Iv 32 -P dsr -Ph 1 -Pq 1 -Ps 1 -Pp 0 -Pn 1 -Pl 0 -Pe 0->0 -Pw 0 -Pm 0 -Pc 0 -Pb 0->0 
s -t 1.001021143 -Hs 34 -Hd -1 -Ni 34 -Nx 288.13 -Ny 437.65 -Nz 0.00 -Ne -1.000000 -Nl RTR -Nw --- -Ma 0 -Md 0 -Ms 0 -Mt 0 -Is 34.255 -Id 0.255 -It DSR -Il 32 -If 0 -Ii 67 -Iv 32 -P dsr -Ph 1 -Pq 1 -Ps 1 -Pp 0 -Pn 1 -Pl 0 -Pe 0->0 -Pw 0 -Pm 0 -Pc 0 -Pb 0->0 
s -t 1.001152207 -Hs 17 -Hd -1 -Ni 17 -Nx 266.85 -Ny 239.90 -Nz 0.00 -Ne -1.000000 -Nl RTR -Nw --- -Ma 0 -Md 0 -Ms 0 -Mt 0 -Is 17.255 -Id 0.255 -It DSR -Il 32 -If 0 -Ii 33 -Iv 32 -P dsr -Ph 1 -Pq 1 -Ps 1 -Pp 0 -Pn 1 -Pl 0 -Pe 0->0 -Pw 0 -Pm 0 -Pc 0 -Pb 0->0 
r -t 1.001191481 -Hs 41 -Hd -1 -Ni 41 -Nx 303.69 -Ny 66.65 -Nz 0.00 -Ne -1.000000 -Nl RTR -Nw --- -Ma 0 -Md ffffffff -Ms 19 -Mt 800 -Is 25.255 -Id 0.255 -It DSR -Il 32 -If 0 -Ii 49 -Iv 32 -P dsr -Ph 1 -Pq 1 -Ps 1 -Pp 0 -Pn 1 -Pl 0 -Pe 0->0 -Pw 0 -Pm 0 -Pc 0 -Pb 0->0 
r -t 1.001191612 -Hs 15 -Hd -1 -Ni 15 -Nx 277.28 -Ny 117.94 -Nz 0.00 -Ne -1.000000 -Nl RTR -Nw --- -Ma 0 -Md ffffffff -Ms 19 -Mt 800 -Is 25.255 -Id 0.255 -It DSR -Il 32 -If 0 -Ii 49 -Iv 32 -P dsr -Ph 1 -Pq 1 -Ps 1 -Pp 0 -Pn 1 -Pl 0 -Pe 0->0 -Pw 0 -Pm 0 -Pc 0 -Pb 0->0 
r -t 1.001191616 -Hs 33 -Hd -1 -Ni 33 -Nx 305.42 -Ny 112.16 -Nz 0.00 -Ne -1.000000 -Nl RTR -Nw --- -Ma 0 -Md ffffffff -Ms 19 -Mt 800 -Is 25.255 -Id 0.255 -It DSR -Il 32 -If 0 -Ii 49 -Iv 32 -P dsr -Ph 1 -Pq 1 -Ps 1 -Pp 0 -Pn 1 -Pl 0 -Pe 0->0 -Pw 0 -Pm 0 -Pc 0 -Pb 0->0 
r -t 1.001191690 -Hs 29 -Hd -1 -Ni 29 -Nx 155.42 -Ny 58.30 -Nz 0.00 -Ne -1.000000 -Nl RTR -Nw --- -Ma 0 -Md ffffffff -Ms 19 -Mt 800 -Is 25.255 -Id 0.255 -It DSR -Il 32 -If 0 -Ii 49 -Iv 32 -P dsr -Ph 1 -Pq 1 -Ps 1 -Pp 0 -Pn 1 -Pl 0 -Pe 0->0 -Pw 0 -Pm 0 -Pc 0 -Pb 0->0 
r -t 1.001191751 -Hs 24 -Hd -1 -Ni 24 -Nx 401.05 -Ny 55.99 -Nz 0.00 -Ne -1.000000 -Nl RTR -Nw --- -Ma 0 -Md ffffffff -Ms 19 -Mt 800 -Is 25.255 -Id 0.255 -It DSR -Il 32 -If 0 -Ii 49 -Iv 32 -P dsr -Ph 1 -Pq 1 -Ps 1 -Pp 0 -Pn 1 -Pl 0 -Pe 0->0 -Pw 0 -Pm 0 -Pc 0 -Pb 0->0 
r -t 1.001191815 -Hs 5 -Hd -1 -Ni 5 -Nx 251.28 -Ny 178.35 -Nz 0.00 -Ne -1.000000 -Nl RTR -Nw --- -Ma 0 -Md ffffffff -Ms 19 -Mt 800 -Is 25.255 -Id 0.255 -It DSR -Il 32 -If 0 -Ii 49 -Iv 32 -P dsr -Ph 1 -Pq 1 -Ps 1 -Pp 0 -Pn 1 -Pl 0 -Pe 0->0 -Pw 0 -Pm 0 -Pc 0 -Pb 0->0 
r -t 1.001191827 -Hs 40 -Hd -1 -Ni 40 -Nx 160.99 -Ny 141.16 -Nz 0.00 -Ne -1.000000 -Nl RTR -Nw --- -Ma 0 -Md ffffffff -Ms 19 -Mt 800 -Is 25.255 -Id 0.255 -It DSR -Il 32 -If 0 -Ii 49 -Iv 32 -P dsr -Ph 1 -Pq 1 -Ps 1 -Pp 0 -Pn 1 -Pl 0 -Pe 0->0 -Pw 0 -Pm 0 -Pc 0 -Pb 0->0 
r -t 1.001191830 -Hs 48 -Hd -1 -Ni 48 -Nx 385.14 -Ny 133.35 -Nz 0.00 -Ne -1.000000 -Nl RTR -Nw --- -Ma 0 -Md ffffffff -Ms 19 -Mt 800 -Is 25.255 -Id 0.255 -It DSR -Il 32 -If 0 -Ii 49 -Iv 32 -P dsr -Ph 1 -Pq 1 -Ps 1 -Pp 0 -Pn 1 -Pl 0 -Pe 0->0 -Pw 0 -Pm 0 -Pc 0 -Pb 0->0 
r -t 1.001191862 -Hs 8 -Hd -1 -Ni 8 -Nx 278.48 -Ny 193.01 -Nz 0.00 -Ne -1.000000 -Nl RTR -Nw --- -Ma 0 -Md ffffffff -Ms 19 -Mt 800 -Is 25.255 -Id 0.255 -It DSR -Il 32 -If 0 -Ii 49 -Iv 32 -P dsr -Ph 1 -Pq 1 -Ps 1 -Pp 0 -Pn 1 -Pl 0 -Pe 0->0 -Pw 0 -Pm 0 -Pc 0 -Pb 0->0 
r -t 1.001191862 -Hs 27 -Hd -1 -Ni 27 -Nx 149.20 -Ny 144.74 -Nz 0.00 -Ne -1.000000 -Nl RTR -Nw --- -Ma 0 -Md ffffffff -Ms 19 -Mt 800 -Is 25.255 -Id 0.255 -It DSR -Il 32 -If 0 -Ii 49 -Iv 32 -P dsr -Ph 1 -Pq 1 -Ps 1 -Pp 0 -Pn 1 -Pl 0 -Pe 0->0 -Pw 0 -Pm 0 -Pc 0 -Pb 0->0 
r -t 1.001191893 -Hs 12 -Hd -1 -Ni 12 -Nx 446.28 -Ny 2.48 -Nz 0.00 -Ne -1.000000 -Nl RTR -Nw --- -Ma 0 -Md ffffffff -Ms 19 -Mt 800 -Is 25.255 -Id 0.255 -It DSR -Il 32 -If 0 -Ii 49 -Iv 32 -P dsr -Ph 1 -Pq 1 -Ps 1 -Pp 0 -Pn 1 -Pl 0 -Pe 0->0 -Pw 0 -Pm 0 -Pc 0 -Pb 0->0 
r -t 1.001191916 -Hs 9 -Hd -1 -Ni 9 -Nx 129.27 -Ny 147.29 -Nz 0.00 -Ne -1.000000 -Nl RTR -Nw --- -Ma 0 -Md ffffffff -Ms 19 -Mt 800 -Is 25.255 -Id 0.255 -It DSR -Il 32 -If 0 -Ii 49 -Iv 32 -P dsr -Ph 1 -Pq 1 -Ps 1 -Pp 0 -Pn 1 -Pl 0 -Pe 0->0 -Pw 0 -Pm 0 -Pc 0 -Pb 0->0 
r -t 1.001191925 -Hs 42 -Hd -1 -Ni 42 -Nx 140.24 -Ny 162.18 -Nz 0.00 -Ne -1.000000 -Nl RTR -Nw --- -Ma 0 -Md ffffffff -Ms 19 -Mt 800 -Is 25.255 -Id 0.255 -It DSR -Il 32 -If 0 -Ii 49 -Iv 32 -P dsr -Ph 1 -Pq 1 -Ps 1 -Pp 0 -Pn 1 -Pl 0 -Pe 0->0 -Pw 0 -Pm 0 -Pc 0 -Pb 0->0 
r -t 1.001191987 -Hs 22 -Hd -1 -Ni 22 -Nx 406.82 -Ny 178.01 -Nz 0.00 -Ne -1.000000 -Nl RTR -Nw --- -Ma 0 -Md ffffffff -Ms 19 -Mt 800 -Is 25.255 -Id 0.255 -It DSR -Il 32 -If 0 -Ii 49 -Iv 32 -P dsr -Ph 1 -Pq 1 -Ps 1 -Pp 0 -Pn 1 -Pl 0 -Pe 0->0 -Pw 0 -Pm 0 -Pc 0 -Pb 0->0 
r -t 1.001192017 -Hs 17 -Hd -1 -Ni 17 -Nx 266.85 -Ny 239.90 -Nz 0.00 -Ne -1.000000 -Nl RTR -Nw --- -Ma 0 -Md ffffffff -Ms 19 -Mt 800 -Is 25.255 -Id 0.255 -It DSR -Il 32 -If 0 -Ii 49 -Iv 32 -P dsr -Ph 1 -Pq 1 -Ps 1 -Pp 0 -Pn 1 -Pl 0 -Pe 0->0 -Pw 0 -Pm 0 -Pc 0 -Pb 0->0 
r -t 1.001192025 -Hs 14 -Hd -1 -Ni 14 -Nx 64.51 -Ny 103.17 -Nz 0.00 -Ne -1.000000 -Nl RTR -Nw --- -Ma 0 -Md ffffffff -Ms 19 -Mt 800 -Is 25.255 -Id 0.255 -It DSR -Il 32 -If 0 -Ii 49 -Iv 32 -P dsr -Ph 1 -Pq 1 -Ps 1 -Pp 0 -Pn 1 -Pl 0 -Pe 0->0 -Pw 0 -Pm 0 -Pc 0 -Pb 0->0 
r -t 1.001192042 -Hs 16 -Hd -1 -Ni 16 -Nx 491.81 -Ny 36.22 -Nz 0.00 -Ne -1.000000 -Nl RTR -Nw --- -Ma 0 -Md ffffffff -Ms 19 -Mt 800 -Is 25.255 -Id 0.255 -It DSR -Il 32 -If 0 -Ii 49 -Iv 32 -P dsr -Ph 1 -Pq 1 -Ps 1 -Pp 0 -Pn 1 -Pl 0 -Pe 0->0 -Pw 0 -Pm 0 -Pc 0 -Pb 0->0 
r -t 1.001192050 -Hs 21 -Hd -1 -Ni 21 -Nx 490.47 -Ny 66.24 -Nz 0.00 -Ne -1.000000 -Nl RTR -Nw --- -Ma 0 -Md ffffffff -Ms 19 -Mt 800 -Is 25.255 -Id 0.255 -It DSR -Il 32 -If 0 -Ii 49 -Iv 32 -P dsr -Ph 1 -Pq 1 -Ps 1 -Pp 0 -Pn 1 -Pl 0 -Pe 0->0 -Pw 0 -Pm 0 -Pc 0 -Pb 0->0 
r -t 1.001192054 -Hs 49 -Hd -1 -Ni 49 -Nx 90.48 -Ny 165.42 -Nz 0.00 -Ne -1.000000 -Nl RTR -Nw --- -Ma 0 -Md ffffffff -Ms 19 -Mt 800 -Is 25.255 -Id 0.255 -It DSR -Il 32 -If 0 -Ii 49 -Iv 32 -P dsr -Ph 1 -Pq 1 -Ps 1 -Pp 0 -Pn 1 -Pl 0 -Pe 0->0 -Pw 0 -Pm 0 -Pc 0 -Pb 0->0 
r -t 1.001192061 -Hs 37 -Hd -1 -Ni 37 -Nx 372.62 -Ny 228.08 -Nz 0.00 -Ne -1.000000 -Nl RTR -Nw --- -Ma 0 -Md ffffffff -Ms 19 -Mt 800 -Is 25.255 -Id 0.255 -It DSR -Il 32 -If 0 -Ii 49 -Iv 32 -P dsr -Ph 1 -Pq 1 -Ps 1 -Pp 0 -Pn 1 -Pl 0 -Pe 0->0 -Pw 0 -Pm 0 -Pc 0 -Pb 0->0 
r -t 1.001192096 -Hs 11 -Hd -1 -Ni 11 -Nx 402.36 -Ny 222.79 -Nz 0.00 -Ne -1.000000 -Nl RTR -Nw --- -Ma 0 -Md ffffffff -Ms 19 -Mt 800 -Is 25.255 -Id 0.255 -It DSR -Il 32 -If 0 -Ii 49 -Iv 32 -P dsr -Ph 1 -Pq 1 -Ps 1 -Pp 0 -Pn 1 -Pl 0 -Pe 0->0 -Pw 0 -Pm 0 -Pc 0 -Pb 0->0 
r -t 1.001192109 -Hs 1 -Hd -1 -Ni 1 -Nx 472.93 -Ny 156.69 -Nz 0.00 -Ne -1.000000 -Nl RTR -Nw --- -Ma 0 -Md ffffffff -Ms 19 -Mt 800 -Is 25.255 -Id 0.255 -It DSR -Il 32 -If 0 -Ii 49 -Iv 32 -P dsr -Ph 1 -Pq 1 -Ps 1 -Pp 0 -Pn 1 -Pl 0 -Pe 0->0 -Pw 0 -Pm 0 -Pc 0 -Pb 0->0 
s -t 1.001427164 -Hs 40 -Hd -1 -Ni 40 -Nx 160.99 -Ny 141.16 -Nz 0.00 -Ne -1.000000 -Nl RTR -Nw --- -Ma 0 -Md 0 -Ms 0 -Mt 0 -Is 40.255 -Id 0.255 -It DSR -Il 32 -If 0 -Ii 79 -Iv 32 -P dsr -Ph 1 -Pq 1 -Ps 1 -Pp 0 -Pn 1 -Pl 0 -Pe 0->0 -Pw 0 -Pm 0 -Pc 0 -Pb 0->0 
s -t 1.001547494 -Hs 43 -Hd -1 -Ni 43 -Nx 451.99 -Ny 408.72 -Nz 0.00 -Ne -1.000000 -Nl RTR -Nw --- -Ma 0 -Md 0 -Ms 0 -Mt 0 -Is 43.255 -Id 0.255 -It DSR -Il 32 -If 0 -Ii 85 -Iv 32 -P dsr -Ph 1 -Pq 1 -Ps 1 -Pp 0 -Pn 1 -Pl 0 -Pe 0->0 -Pw 0 -Pm 0 -Pc 0 -Pb 0->0 
s -t 1.001637773 -Hs 42 -Hd -1 -Ni 42 -Nx 140.24 -Ny 162.18 -Nz 0.00 -Ne -1.000000 -Nl RTR -Nw --- -Ma 0 -Md 0 -Ms 0 -Mt 0 -Is 42.255 -Id 0.255 -It DSR -Il 32 -If 0 -Ii 83 -Iv 32 -P dsr -Ph 1 -Pq 1 -Ps 1 -Pp 0 -Pn 1 -Pl 0 -Pe 0->0 -Pw 0 -Pm 0 -Pc 0 -Pb 0->0 
s -t 1.001865947 -Hs 3 -Hd -1 -Ni 3 -Nx 405.86 -Ny 336.98 -Nz 0.00 -Ne -1.000000 -Nl RTR -Nw --- -Ma 0 -Md 0 -Ms 0 -Mt 0 -Is 3.255 -Id 0.255 -It DSR -Il 32 -If 0 -Ii 5 -Iv 32 -P dsr -Ph 1 -Pq 1 -Ps 1 -Pp 0 -Pn 1 -Pl 0 -Pe 0->0 -Pw 0 -Pm 0 -Pc 0 -Pb 0->0 
r -t 1.002001712 -Hs 15 -Hd -1 -Ni 15 -Nx 277.28 -Ny 117.94 -Nz 0.00 -Ne -1.000000 -Nl RTR -Nw --- -Ma 0 -Md ffffffff -Ms 21 -Mt 800 -Is 33.255 -Id 0.255 -It DSR -Il 32 -If 0 -Ii 65 -Iv 32 -P dsr -Ph 1 -Pq 1 -Ps 1 -Pp 0 -Pn 1 -Pl 0 -Pe 0->0 -Pw 0 -Pm 0 -Pc 0 -Pb 0->0 