+ 1 0 2 tcp 40 ------- 1 0.0 4.0 0 0
- 1 0 2 tcp 40 ------- 1 0.0 4.0 0 0
+ 1 1 2 cbr 1000 ------- 2 1.0 5.0 0 1
- 1 1 2 cbr 1000 ------- 2 1.0 5.0 0 1
+ 1 1 2 cbr 24 ------- 2 1.0 5.0 1 2
- 1.004 1 2 cbr 24 ------- 2 1.0 5.0 1 2
+ 1.008192 1 2 cbr 1000 ------- 2 1.0 5.0 2 3
- 1.008192 1 2 cbr 1000 ------- 2 1.0 5.0 2 3
+ 1.008192 1 2 cbr 24 ------- 2 1.0 5.0 3 4
r 1.01016 0 2 tcp 40 ------- 1 0.0 4.0 0 0
+ 1.01016 2 3 tcp 40 ------- 1 0.0 4.0 0 0
- 1.01016 2 3 tcp 40 ------- 1 0.0 4.0 0 0
- 1.012192 1 2 cbr 24 ------- 2 1.0 5.0 3 4
r 1.014 1 2 cbr 1000 ------- 2 1.0 5.0 0 1
+ 1.014 2 3 cbr 1000 ------- 2 1.0 5.0 0 1
- 1.014 2 3 cbr 1000 ------- 2 1.0 5.0 0 1
r 1.014096 1 2 cbr 24 ------- 2 1.0 5.0 1 2
+ 1.014096 2 3 cbr 24 ------- 2 1.0 5.0 1 2
+ 1.016384 1 2 cbr 1000 ------- 2 1.0 5.0 4 5
- 1.016384 1 2 cbr 1000 ------- 2 1.0 5.0 4 5
+ 1.016384 1 2 cbr 24 ------- 2 1.0 5.0 5 6
- 1.020384 1 2 cbr 24 ------- 2 1.0 5.0 5 6
r 1.022192 1 2 cbr 1000 ------- 2 1.0 5.0 2 3
+ 1.022192 2 3 cbr 1000 ------- 2 1.0 5.0 2 3
r 1.022288 1 2 cbr 24 ------- 2 1.0 5.0 3 4
+ 1.022288 2 3 cbr 24 ------- 2 1.0 5.0 3 4
+ 1.024576 1 2 cbr 1000 ------- 2 1.0 5.0 6 7
- 1.024576 1 2 cbr 1000 ------- 2 1.0 5.0 6 7
+ 1.024576 1 2 cbr 24 ------- 2 1.0 5.0 7 8
- 1.028576 1 2 cbr 24 ------- 2 1.0 5.0 7 8
r 1.030384 1 2 cbr 1000 ------- 2 1.0 5.0 4 5
+ 1.030384 2 3 cbr 1000 ------- 2 1.0 5.0 4 5
r 1.03048 1 2 cbr 24 ------- 2 1.0 5.0 5 6
+ 1.03048 2 3 cbr 24 ------- 2 1.0 5.0 5 6
+ 1.032768 1 2 cbr 1000 ------- 2 1.0 5.0 8 9
- 1.032768 1 2 cbr 1000 ------- 2 1.0 5.0 8 9
+ 1.032768 1 2 cbr 24 ------- 2 1.0 5.0 9 10
- 1.036768 1 2 cbr 24 ------- 2 1.0 5.0 9 10
r 1.038576 1 2 cbr 1000 ------- 2 1.0 5.0 6 7
+ 1.038576 2 3 cbr 1000 ------- 2 1.0 5.0 6 7
r 1.038672 1 2 cbr 24 ------- 2 1.0 5.0 7 8
+ 1.038672 2 3 cbr 24 ------- 2 1.0 5.0 7 8
- 1.040667 2 3 cbr 24 ------- 2 1.0 5.0 1 2
+ 1.04096 1 2 cbr 1000 ------- 2 1.0 5.0 10 11
- 1.04096 1 2 cbr 1000 ------- 2 1.0 5.0 10 11
+ 1.04096 1 2 cbr 24 ------- 2 1.0 5.0 11 12
- 1.041307 2 3 cbr 1000 ------- 2 1.0 5.0 2 3
- 1.04496 1 2 cbr 24 ------- 2 1.0 5.0 11 12
r 1.046768 1 2 cbr 1000 ------- 2 1.0 5.0 8 9
+ 1.046768 2 3 cbr 1000 ------- 2 1.0 5.0 8 9
r 1.046864 1 2 cbr 24 ------- 2 1.0 5.0 9 10
+ 1.046864 2 3 cbr 24 ------- 2 1.0 5.0 9 10
+ 1.049152 1 2 cbr 1000 ------- 2 1.0 5.0 12 13
- 1.049152 1 2 cbr 1000 ------- 2 1.0 5.0 12 13
+ 1.049152 1 2 cbr 24 ------- 2 1.0 5.0 13 14
- 1.053152 1 2 cbr 24 ------- 2 1.0 5.0 13 14
r 1.05496 1 2 cbr 1000 ------- 2 1.0 5.0 10 11
+ 1.05496 2 3 cbr 1000 ------- 2 1.0 5.0 10 11
r 1.055056 1 2 cbr 24 ------- 2 1.0 5.0 11 12
+ 1.055056 2 3 cbr 24 ------- 2 1.0 5.0 11 12
+ 1.057344 1 2 cbr 1000 ------- 2 1.0 5.0 14 15
- 1.057344 1 2 cbr 1000 ------- 2 1.0 5.0 14 15
+ 1.057344 1 2 cbr 24 ------- 2 1.0 5.0 15 16
- 1.061344 1 2 cbr 24 ------- 2 1.0 5.0 15 16
r 1.063152 1 2 cbr 1000 ------- 2 1.0 5.0 12 13
+ 1.063152 2 3 cbr 1000 ------- 2 1.0 5.0 12 13
r 1.063248 1 2 cbr 24 ------- 2 1.0 5.0 13 14
+ 1.063248 2 3 cbr 24 ------- 2 1.0 5.0 13 14
+ 1.065536 1 2 cbr 1000 ------- 2 1.0 5.0 16 17
- 1.065536 1 2 cbr 1000 ------- 2 1.0 5.0 16 17
+ 1.065536 1 2 cbr 24 ------- 2 1.0 5.0 17 18
- 1.067973 2 3 cbr 24 ------- 2 1.0 5.0 3 4
- 1.068613 2 3 cbr 1000 ------- 2 1.0 5.0 4 5
- 1.069536 1 2 cbr 24 ------- 2 1.0 5.0 17 18
r 1.071344 1 2 cbr 1000 ------- 2 1.0 5.0 14 15
+ 1.071344 2 3 cbr 1000 ------- 2 1.0 5.0 14 15
r 1.07144 1 2 cbr 24 ------- 2 1.0 5.0 15 16
+ 1.07144 2 3 cbr 24 ------- 2 1.0 5.0 15 16
+ 1.073728 1 2 cbr 1000 ------- 2 1.0 5.0 18 19
- 1.073728 1 2 cbr 1000 ------- 2 1.0 5.0 18 19
+ 1.073728 1 2 cbr 24 ------- 2 1.0 5.0 19 20
- 1.077728 1 2 cbr 24 ------- 2 1.0 5.0 19 20
r 1.079536 1 2 cbr 1000 ------- 2 1.0 5.0 16 17
+ 1.079536 2 3 cbr 1000 ------- 2 1.0 5.0 16 17
r 1.079632 1 2 cbr 24 ------- 2 1.0 5.0 17 18
+ 1.079632 2 3 cbr 24 ------- 2 1.0 5.0 17 18
+ 1.08192 1 2 cbr 1000 ------- 2 1.0 5.0 20 21
- 1.08192 1 2 cbr 1000 ------- 2 1.0 5.0 20 21
+ 1.08192 1 2 cbr 24 ------- 2 1.0 5.0 21 22
- 1.08592 1 2 cbr 24 ------- 2 1.0 5.0 21 22
r 1.087728 1 2 cbr 1000 ------- 2 1.0 5.0 18 19
+ 1.087728 2 3 cbr 1000 ------- 2 1.0 5.0 18 19
r 1.087824 1 2 cbr 24 ------- 2 1.0 5.0 19 20
+ 1.087824 2 3 cbr 24 ------- 2 1.0 5.0 19 20
+ 1.090112 1 2 cbr 1000 ------- 2 1.0 5.0 22 23
- 1.090112 1 2 cbr 1000 ------- 2 1.0 5.0 22 23
+ 1.090112 1 2 cbr 24 ------- 2 1.0 5.0 23 24
- 1.094112 1 2 cbr 24 ------- 2 1.0 5.0 23 24
- 1.09528 2 3 cbr 24 ------- 2 1.0 5.0 5 6
r 1.09592 1 2 cbr 1000 ------- 2 1.0 5.0 20 21
+ 1.09592 2 3 cbr 1000 ------- 2 1.0 5.0 20 21
- 1.09592 2 3 cbr 1000 ------- 2 1.0 5.0 6 7
r 1.096016 1 2 cbr 24 ------- 2 1.0 5.0 21 22
+ 1.096016 2 3 cbr 24 ------- 2 1.0 5.0 21 22
+ 1.098304 1 2 cbr 1000 ------- 2 1.0 5.0 24 25
- 1.098304 1 2 cbr 1000 ------- 2 1.0 5.0 24 25
+ 1.098304 1 2 cbr 24 ------- 2 1.0 5.0 25 26
- 1.102304 1 2 cbr 24 ------- 2 1.0 5.0 25 26
r 1.104112 1 2 cbr 1000 ------- 2 1.0 5.0 22 23
+ 1.104112 2 3 cbr 1000 ------- 2 1.0 5.0 22 23
r 1.104208 1 2 cbr 24 ------- 2 1.0 5.0 23 24
+ 1.104208 2 3 cbr 24 ------- 2 1.0 5.0 23 24
+ 1.106496 1 2 cbr 1000 ------- 2 1.0 5.0 26 27
- 1.106496 1 2 cbr 1000 ------- 2 1.0 5.0 26 27
+ 1.106496 1 2 cbr 24 ------- 2 1.0 5.0 27 28
- 1.110496 1 2 cbr 24 ------- 2 1.0 5.0 27 28
r 1.111227 2 3 tcp 40 ------- 1 0.0 4.0 0 0
+ 1.111227 3 4 tcp 40 ------- 1 0.0 4.0 0 0
- 1.111227 3 4 tcp 40 ------- 1 0.0 4.0 0 0
r 1.112304 1 2 cbr 1000 ------- 2 1.0 5.0 24 25
+ 1.112304 2 3 cbr 1000 ------- 2 1.0 5.0 24 25
r 1.1124 1 2 cbr 24 ------- 2 1.0 5.0 25 26
+ 1.1124 2 3 cbr 24 ------- 2 1.0 5.0 25 26
+ 1.114688 1 2 cbr 1000 ------- 2 1.0 5.0 28 29
- 1.114688 1 2 cbr 1000 ------- 2 1.0 5.0 28 29
+ 1.114688 1 2 cbr 24 ------- 2 1.0 5.0 29 30
- 1.118688 1 2 cbr 24 ------- 2 1.0 5.0 29 30
r 1.120496 1 2 cbr 1000 ------- 2 1.0 5.0 26 27
+ 1.120496 2 3 cbr 1000 ------- 2 1.0 5.0 26 27
r 1.120592 1 2 cbr 24 ------- 2 1.0 5.0 27 28
+ 1.120592 2 3 cbr 24 ------- 2 1.0 5.0 27 28
- 1.122587 2 3 cbr 24 ------- 2 1.0 5.0 7 8
+ 1.12288 1 2 cbr 1000 ------- 2 1.0 5.0 30 31
- 1.12288 1 2 cbr 1000 ------- 2 1.0 5.0 30 31
+ 1.12288 1 2 cbr 24 ------- 2 1.0 5.0 31 32
- 1.123227 2 3 cbr 1000 ------- 2 1.0 5.0 8 9
- 1.12688 1 2 cbr 24 ------- 2 1.0 5.0 31 32
r 1.128688 1 2 cbr 1000 ------- 2 1.0 5.0 28 29
+ 1.128688 2 3 cbr 1000 ------- 2 1.0 5.0 28 29
r 1.128784 1 2 cbr 24 ------- 2 1.0 5.0 29 30
+ 1.128784 2 3 cbr 24 ------- 2 1.0 5.0 29 30
+ 1.131072 1 2 cbr 1000 ------- 2 1.0 5.0 32 33
- 1.131072 1 2 cbr 1000 ------- 2 1.0 5.0 32 33
+ 1.131072 1 2 cbr 24 ------- 2 1.0 5.0 33 34
- 1.135072 1 2 cbr 24 ------- 2 1.0 5.0 33 34
r 1.13688 1 2 cbr 1000 ------- 2 1.0 5.0 30 31
+ 1.13688 2 3 cbr 1000 ------- 2 1.0 5.0 30 31
r 1.136976 1 2 cbr 24 ------- 2 1.0 5.0 31 32
+ 1.136976 2 3 cbr 24 ------- 2 1.0 5.0 31 32
+ 1.139264 1 2 cbr 1000 ------- 2 1.0 5.0 34 35
- 1.139264 1 2 cbr 1000 ------- 2 1.0 5.0 34 35
+ 1.139264 1 2 cbr 24 ------- 2 1.0 5.0 35 36
r 1.140667 2 3 cbr 1000 ------- 2 1.0 5.0 0 1
+ 1.140667 3 5 cbr 1000 ------- 2 1.0 5.0 0 1
- 1.140667 3 5 cbr 1000 ------- 2 1.0 5.0 0 1
r 1.141307 2 3 cbr 24 ------- 2 1.0 5.0 1 2
+ 1.141307 3 5 cbr 24 ------- 2 1.0 5.0 1 2
- 1.143264 1 2 cbr 24 ------- 2 1.0 5.0 35 36
r 1.145072 1 2 cbr 1000 ------- 2 1.0 5.0 32 33
+ 1.145072 2 3 cbr 1000 ------- 2 1.0 5.0 32 33
r 1.145168 1 2 cbr 24 ------- 2 1.0 5.0 33 34
+ 1.145168 2 3 cbr 24 ------- 2 1.0 5.0 33 34
+ 1.147456 1 2 cbr 1000 ------- 2 1.0 5.0 36 37
- 1.147456 1 2 cbr 1000 ------- 2 1.0 5.0 36 37
+ 1.147456 1 2 cbr 24 ------- 2 1.0 5.0 37 38
- 1.149893 2 3 cbr 24 ------- 2 1.0 5.0 9 10
- 1.150533 2 3 cbr 1000 ------- 2 1.0 5.0 10 11
- 1.151456 1 2 cbr 24 ------- 2 1.0 5.0 37 38
r 1.151867 3 4 tcp 40 ------- 1 0.0 4.0 0 0
+ 1.151867 4 3 ack 40 ------- 1 4.0 0.0 0 39
- 1.151867 4 3 ack 40 ------- 1 4.0 0.0 0 39
r 1.153264 1 2 cbr 1000 ------- 2 1.0 5.0 34 35
+ 1.153264 2 3 cbr 1000 ------- 2 1.0 5.0 34 35
r 1.15336 1 2 cbr 24 ------- 2 1.0 5.0 35 36
+ 1.15336 2 3 cbr 24 ------- 2 1.0 5.0 35 36
+ 1.155648 1 2 cbr 1000 ------- 2 1.0 5.0 38 40
- 1.155648 1 2 cbr 1000 ------- 2 1.0 5.0 38 40
+ 1.155648 1 2 cbr 24 ------- 2 1.0 5.0 39 41
- 1.156667 3 5 cbr 24 ------- 2 1.0 5.0 1 2
- 1.159648 1 2 cbr 24 ------- 2 1.0 5.0 39 41
r 1.161456 1 2 cbr 1000 ------- 2 1.0 5.0 36 37
+ 1.161456 2 3 cbr 1000 ------- 2 1.0 5.0 36 37
r 1.161552 1 2 cbr 24 ------- 2 1.0 5.0 37 38
+ 1.161552 2 3 cbr 24 ------- 2 1.0 5.0 37 38
+ 1.16384 1 2 cbr 1000 ------- 2 1.0 5.0 40 42
- 1.16384 1 2 cbr 1000 ------- 2 1.0 5.0 40 42
+ 1.16384 1 2 cbr 24 ------- 2 1.0 5.0 41 43
- 1.16784 1 2 cbr 24 ------- 2 1.0 5.0 41 43
r 1.167973 2 3 cbr 1000 ------- 2 1.0 5.0 2 3
+ 1.167973 3 5 cbr 1000 ------- 2 1.0 5.0 2 3
- 1.167973 3 5 cbr 1000 ------- 2 1.0 5.0 2 3
r 1.168613 2 3 cbr 24 ------- 2 1.0 5.0 3 4
+ 1.168613 3 5 cbr 24 ------- 2 1.0 5.0 3 4
r 1.169648 1 2 cbr 1000 ------- 2 1.0 5.0 38 40
+ 1.169648 2 3 cbr 1000 ------- 2 1.0 5.0 38 40
r 1.169744 1 2 cbr 24 ------- 2 1.0 5.0 39 41
+ 1.169744 2 3 cbr 24 ------- 2 1.0 5.0 39 41
+ 1.172032 1 2 cbr 1000 ------- 2 1.0 5.0 42 44
- 1.172032 1 2 cbr 1000 ------- 2 1.0 5.0 42 44
+ 1.172032 1 2 cbr 24 ------- 2 1.0 5.0 43 45
- 1.176032 1 2 cbr 24 ------- 2 1.0 5.0 43 45
- 1.1772 2 3 cbr 24 ------- 2 1.0 5.0 11 12
r 1.17784 1 2 cbr 1000 ------- 2 1.0 5.0 40 42
+ 1.17784 2 3 cbr 1000 ------- 2 1.0 5.0 40 42
- 1.17784 2 3 cbr 1000 ------- 2 1.0 5.0 12 13
r 1.177936 1 2 cbr 24 ------- 2 1.0 5.0 41 43
+ 1.177936 2 3 cbr 24 ------- 2 1.0 5.0 41 43
+ 1.180224 1 2 cbr 1000 ------- 2 1.0 5.0 44 46
- 1.180224 1 2 cbr 1000 ------- 2 1.0 5.0 44 46
+ 1.180224 1 2 cbr 24 ------- 2 1.0 5.0 45 47
- 1.183973 3 5 cbr 24 ------- 2 1.0 5.0 3 4
- 1.184224 1 2 cbr 24 ------- 2 1.0 5.0 45 47
r 1.186032 1 2 cbr 1000 ------- 2 1.0 5.0 42 44
+ 1.186032 2 3 cbr 1000 ------- 2 1.0 5.0 42 44
r 1.186128 1 2 cbr 24 ------- 2 1.0 5.0 43 45
+ 1.186128 2 3 cbr 24 ------- 2 1.0 5.0 43 45
r 1.186667 3 5 cbr 1000 ------- 2 1.0 5.0 0 1
r 1.187051 3 5 cbr 24 ------- 2 1.0 5.0 1 2
+ 1.188416 1 2 cbr 1000 ------- 2 1.0 5.0 46 48
- 1.188416 1 2 cbr 1000 ------- 2 1.0 5.0 46 48
+ 1.188416 1 2 cbr 24 ------- 2 1.0 5.0 47 49
- 1.192416 1 2 cbr 24 ------- 2 1.0 5.0 47 49
r 1.192507 4 3 ack 40 ------- 1 4.0 0.0 0 39
+ 1.192507 3 2 ack 40 ------- 1 4.0 0.0 0 39
- 1.192507 3 2 ack 40 ------- 1 4.0 0.0 0 39
r 1.194224 1 2 cbr 1000 ------- 2 1.0 5.0 44 46
+ 1.194224 2 3 cbr 1000 ------- 2 1.0 5.0 44 46
r 1.19432 1 2 cbr 24 ------- 2 1.0 5.0 45 47
+ 1.19432 2 3 cbr 24 ------- 2 1.0 5.0 45 47
r 1.19528 2 3 cbr 1000 ------- 2 1.0 5.0 4 5
+ 1.19528 3 5 cbr 1000 ------- 2 1.0 5.0 4 5
- 1.19528 3 5 cbr 1000 ------- 2 1.0 5.0 4 5
r 1.19592 2 3 cbr 24 ------- 2 1.0 5.0 5 6
+ 1.19592 3 5 cbr 24 ------- 2 1.0 5.0 5 6
+ 1.196608 1 2 cbr 1000 ------- 2 1.0 5.0 48 50
- 1.196608 1 2 cbr 1000 ------- 2 1.0 5.0 48 50
+ 1.196608 1 2 cbr 24 ------- 2 1.0 5.0 49 51
- 1.200608 1 2 cbr 24 ------- 2 1.0 5.0 49 51
r 1.202416 1 2 cbr 1000 ------- 2 1.0 5.0 46 48
+ 1.202416 2 3 cbr 1000 ------- 2 1.0 5.0 46 48
r 1.202512 1 2 cbr 24 ------- 2 1.0 5.0 47 49
+ 1.202512 2 3 cbr 24 ------- 2 1.0 5.0 47 49
- 1.204507 2 3 cbr 24 ------- 2 1.0 5.0 13 14
+ 1.2048 1 2 cbr 1000 ------- 2 1.0 5.0 50 52
- 1.2048 1 2 cbr 1000 ------- 2 1.0 5.0 50 52
+ 1.2048 1 2 cbr 24 ------- 2 1.0 5.0 51 53
- 1.205147 2 3 cbr 1000 ------- 2 1.0 5.0 14 15
- 1.2088 1 2 cbr 24 ------- 2 1.0 5.0 51 53
r 1.210608 1 2 cbr 1000 ------- 2 1.0 5.0 48 50
+ 1.210608 2 3 cbr 1000 ------- 2 1.0 5.0 48 50
r 1.210704 1 2 cbr 24 ------- 2 1.0 5.0 49 51
+ 1.210704 2 3 cbr 24 ------- 2 1.0 5.0 49 51
- 1.21128 3 5 cbr 24 ------- 2 1.0 5.0 5 6
+ 1.212992 1 2 cbr 1000 ------- 2 1.0 5.0 52 54
- 1.212992 1 2 cbr 1000 ------- 2 1.0 5.0 52 54
+ 1.212992 1 2 cbr 24 ------- 2 1.0 5.0 53 55
r 1.213973 3 5 cbr 1000 ------- 2 1.0 5.0 2 3
r 1.214357 3 5 cbr 24 ------- 2 1.0 5.0 3 4
- 1.216992 1 2 cbr 24 ------- 2 1.0 5.0 53 55
r 1.2188 1 2 cbr 1000 ------- 2 1.0 5.0 50 52
+ 1.2188 2 3 cbr 1000 ------- 2 1.0 5.0 50 52
r 1.218896 1 2 cbr 24 ------- 2 1.0 5.0 51 53
+ 1.218896 2 3 cbr 24 ------- 2 1.0 5.0 51 53
+ 1.221184 1 2 cbr 1000 ------- 2 1.0 5.0 54 56
- 1.221184 1 2 cbr 1000 ------- 2 1.0 5.0 54 56
+ 1.221184 1 2 cbr 24 ------- 2 1.0 5.0 55 57
r 1.222587 2 3 cbr 1000 ------- 2 1.0 5.0 6 7
+ 1.222587 3 5 cbr 1000 ------- 2 1.0 5.0 6 7
- 1.222587 3 5 cbr 1000 ------- 2 1.0 5.0 6 7
r 1.223227 2 3 cbr 24 ------- 2 1.0 5.0 7 8
+ 1.223227 3 5 cbr 24 ------- 2 1.0 5.0 7 8
- 1.225184 1 2 cbr 24 ------- 2 1.0 5.0 55 57
r 1.226992 1 2 cbr 1000 ------- 2 1.0 5.0 52 54
+ 1.226992 2 3 cbr 1000 ------- 2 1.0 5.0 52 54
r 1.227088 1 2 cbr 24 ------- 2 1.0 5.0 53 55
+ 1.227088 2 3 cbr 24 ------- 2 1.0 5.0 53 55
+ 1.229376 1 2 cbr 1000 ------- 2 1.0 5.0 56 58
- 1.229376 1 2 cbr 1000 ------- 2 1.0 5.0 56 58
+ 1.229376 1 2 cbr 24 ------- 2 1.0 5.0 57 59
- 1.231813 2 3 cbr 24 ------- 2 1.0 5.0 15 16
- 1.232453 2 3 cbr 1000 ------- 2 1.0 5.0 16 17
- 1.233376 1 2 cbr 24 ------- 2 1.0 5.0 57 59
r 1.235184 1 2 cbr 1000 ------- 2 1.0 5.0 54 56
+ 1.235184 2 3 cbr 1000 ------- 2 1.0 5.0 54 56
r 1.23528 1 2 cbr 24 ------- 2 1.0 5.0 55 57
+ 1.23528 2 3 cbr 24 ------- 2 1.0 5.0 55 57
+ 1.237568 1 2 cbr 1000 ------- 2 1.0 5.0 58 60
- 1.237568 1 2 cbr 1000 ------- 2 1.0 5.0 58 60
+ 1.237568 1 2 cbr 24 ------- 2 1.0 5.0 59 61
- 1.238587 3 5 cbr 24 ------- 2 1.0 5.0 7 8
r 1.24128 3 5 cbr 1000 ------- 2 1.0 5.0 4 5
- 1.241568 1 2 cbr 24 ------- 2 1.0 5.0 59 61
r 1.241664 3 5 cbr 24 ------- 2 1.0 5.0 5 6
r 1.243376 1 2 cbr 1000 ------- 2 1.0 5.0 56 58
+ 1.243376 2 3 cbr 1000 ------- 2 1.0 5.0 56 58
r 1.243472 1 2 cbr 24 ------- 2 1.0 5.0 57 59
+ 1.243472 2 3 cbr 24 ------- 2 1.0 5.0 57 59
+ 1.24576 1 2 cbr 1000 ------- 2 1.0 5.0 60 62
- 1.24576 1 2 cbr 1000 ------- 2 1.0 5.0 60 62
+ 1.24576 1 2 cbr 24 ------- 2 1.0 5.0 61 63
- 1.24976 1 2 cbr 24 ------- 2 1.0 5.0 61 63
r 1.249893 2 3 cbr 1000 ------- 2 1.0 5.0 8 9
+ 1.249893 3 5 cbr 1000 ------- 2 1.0 5.0 8 9
- 1.249893 3 5 cbr 1000 ------- 2 1.0 5.0 8 9
r 1.250533 2 3 cbr 24 ------- 2 1.0 5.0 9 10
+ 1.250533 3 5 cbr 24 ------- 2 1.0 5.0 9 10
r 1.251568 1 2 cbr 1000 ------- 2 1.0 5.0 58 60
+ 1.251568 2 3 cbr 1000 ------- 2 1.0 5.0 58 60
r 1.251664 1 2 cbr 24 ------- 2 1.0 5.0 59 61
+ 1.251664 2 3 cbr 24 ------- 2 1.0 5.0 59 61
+ 1.253952 1 2 cbr 1000 ------- 2 1.0 5.0 62 64
- 1.253952 1 2 cbr 1000 ------- 2 1.0 5.0 62 64
+ 1.253952 1 2 cbr 24 ------- 2 1.0 5.0 63 65
- 1.257952 1 2 cbr 24 ------- 2 1.0 5.0 63 65
- 1.25912 2 3 cbr 24 ------- 2 1.0 5.0 17 18
r 1.25976 1 2 cbr 1000 ------- 2 1.0 5.0 60 62
+ 1.25976 2 3 cbr 1000 ------- 2 1.0 5.0 60 62
- 1.25976 2 3 cbr 1000 ------- 2 1.0 5.0 18 19
r 1.259856 1 2 cbr 24 ------- 2 1.0 5.0 61 63
+ 1.259856 2 3 cbr 24 ------- 2 1.0 5.0 61 63
+ 1.262144 1 2 cbr 1000 ------- 2 1.0 5.0 64 66
- 1.262144 1 2 cbr 1000 ------- 2 1.0 5.0 64 66
+ 1.262144 1 2 cbr 24 ------- 2 1.0 5.0 65 67
- 1.265893 3 5 cbr 24 ------- 2 1.0 5.0 9 10
- 1.266144 1 2 cbr 24 ------- 2 1.0 5.0 65 67
r 1.267952 1 2 cbr 1000 ------- 2 1.0 5.0 62 64
+ 1.267952 2 3 cbr 1000 ------- 2 1.0 5.0 62 64
r 1.268048 1 2 cbr 24 ------- 2 1.0 5.0 63 65
+ 1.268048 2 3 cbr 24 ------- 2 1.0 5.0 63 65
r 1.268587 3 5 cbr 1000 ------- 2 1.0 5.0 6 7
r 1.268971 3 5 cbr 24 ------- 2 1.0 5.0 7 8
+ 1.270336 1 2 cbr 1000 ------- 2 1.0 5.0 66 68
- 1.270336 1 2 cbr 1000 ------- 2 1.0 5.0 66 68
+ 1.270336 1 2 cbr 24 ------- 2 1.0 5.0 67 69
- 1.274336 1 2 cbr 24 ------- 2 1.0 5.0 67 69
r 1.276144 1 2 cbr 1000 ------- 2 1.0 5.0 64 66
+ 1.276144 2 3 cbr 1000 ------- 2 1.0 5.0 64 66
r 1.27624 1 2 cbr 24 ------- 2 1.0 5.0 65 67
+ 1.27624 2 3 cbr 24 ------- 2 1.0 5.0 65 67
r 1.2772 2 3 cbr 1000 ------- 2 1.0 5.0 10 11
+ 1.2772 3 5 cbr 1000 ------- 2 1.0 5.0 10 11
- 1.2772 3 5 cbr 1000 ------- 2 1.0 5.0 10 11
r 1.27784 2 3 cbr 24 ------- 2 1.0 5.0 11 12
+ 1.27784 3 5 cbr 24 ------- 2 1.0 5.0 11 12
+ 1.278528 1 2 cbr 1000 ------- 2 1.0 5.0 68 70
- 1.278528 1 2 cbr 1000 ------- 2 1.0 5.0 68 70
+ 1.278528 1 2 cbr 24 ------- 2 1.0 5.0 69 71
- 1.282528 1 2 cbr 24 ------- 2 1.0 5.0 69 71
r 1.284336 1 2 cbr 1000 ------- 2 1.0 5.0 66 68
+ 1.284336 2 3 cbr 1000 ------- 2 1.0 5.0 66 68
r 1.284432 1 2 cbr 24 ------- 2 1.0 5.0 67 69
+ 1.284432 2 3 cbr 24 ------- 2 1.0 5.0 67 69
- 1.286427 2 3 cbr 24 ------- 2 1.0 5.0 19 20
+ 1.28672 1 2 cbr 1000 ------- 2 1.0 5.0 70 72
- 1.28672 1 2 cbr 1000 ------- 2 1.0 5.0 70 72
+ 1.28672 1 2 cbr 24 ------- 2 1.0 5.0 71 73
- 1.287067 2 3 cbr 1000 ------- 2 1.0 5.0 20 21
- 1.29072 1 2 cbr 24 ------- 2 1.0 5.0 71 73
r 1.292528 1 2 cbr 1000 ------- 2 1.0 5.0 68 70
+ 1.292528 2 3 cbr 1000 ------- 2 1.0 5.0 68 70
r 1.292624 1 2 cbr 24 ------- 2 1.0 5.0 69 71
+ 1.292624 2 3 cbr 24 ------- 2 1.0 5.0 69 71
- 1.2932 3 5 cbr 24 ------- 2 1.0 5.0 11 12
r 1.293573 3 2 ack 40 ------- 1 4.0 0.0 0 39
+ 1.293573 2 0 ack 40 ------- 1 4.0 0.0 0 39
- 1.293573 2 0 ack 40 ------- 1 4.0 0.0 0 39
+ 1.294912 1 2 cbr 1000 ------- 2 1.0 5.0 72 74
- 1.294912 1 2 cbr 1000 ------- 2 1.0 5.0 72 74
+ 1.294912 1 2 cbr 24 ------- 2 1.0 5.0 73 75
r 1.295893 3 5 cbr 1000 ------- 2 1.0 5.0 8 9
r 1.296277 3 5 cbr 24 ------- 2 1.0 5.0 9 10
- 1.298912 1 2 cbr 24 ------- 2 1.0 5.0 73 75
r 1.30072 1 2 cbr 1000 ------- 2 1.0 5.0 70 72
+ 1.30072 2 3 cbr 1000 ------- 2 1.0 5.0 70 72
d 1.30072 2 3 cbr 1000 ------- 2 1.0 5.0 70 72
r 1.300816 1 2 cbr 24 ------- 2 1.0 5.0 71 73
+ 1.300816 2 3 cbr 24 ------- 2 1.0 5.0 71 73
d 1.300816 2 3 cbr 24 ------- 2 1.0 5.0 71 73
+ 1.303104 1 2 cbr 1000 ------- 2 1.0 5.0 74 76
- 1.303104 1 2 cbr 1000 ------- 2 1.0 5.0 74 76
+ 1.303104 1 2 cbr 24 ------- 2 1.0 5.0 75 77
r 1.303733 2 0 ack 40 ------- 1 4.0 0.0 0 39
+ 1.303733 0 2 tcp 1064 ------- 1 0.0 4.0 1 78
- 1.303733 0 2 tcp 1064 ------- 1 0.0 4.0 1 78
+ 1.303733 0 2 tcp 1064 ------- 1 0.0 4.0 2 79
r 1.304507 2 3 cbr 1000 ------- 2 1.0 5.0 12 13
+ 1.304507 3 5 cbr 1000 ------- 2 1.0 5.0 12 13
- 1.304507 3 5 cbr 1000 ------- 2 1.0 5.0 12 13
r 1.305147 2 3 cbr 24 ------- 2 1.0 5.0 13 14
+ 1.305147 3 5 cbr 24 ------- 2 1.0 5.0 13 14
- 1.307104 1 2 cbr 24 ------- 2 1.0 5.0 75 77
- 1.307989 0 2 tcp 1064 ------- 1 0.0 4.0 2 79
r 1.308912 1 2 cbr 1000 ------- 2 1.0 5.0 72 74
+ 1.308912 2 3 cbr 1000 ------- 2 1.0 5.0 72 74
d 1.308912 2 3 cbr 1000 ------- 2 1.0 5.0 72 74
r 1.309008 1 2 cbr 24 ------- 2 1.0 5.0 73 75
+ 1.309008 2 3 cbr 24 ------- 2 1.0 5.0 73 75
d 1.309008 2 3 cbr 24 ------- 2 1.0 5.0 73 75
+ 1.311296 1 2 cbr 1000 ------- 2 1.0 5.0 76 80
- 1.311296 1 2 cbr 1000 ------- 2 1.0 5.0 76 80
+ 1.311296 1 2 cbr 24 ------- 2 1.0 5.0 77 81
- 1.313733 2 3 cbr 24 ------- 2 1.0 5.0 21 22
- 1.314373 2 3 cbr 1000 ------- 2 1.0 5.0 22 23
- 1.315296 1 2 cbr 24 ------- 2 1.0 5.0 77 81
r 1.317104 1 2 cbr 1000 ------- 2 1.0 5.0 74 76
+ 1.317104 2 3 cbr 1000 ------- 2 1.0 5.0 74 76
r 1.3172 1 2 cbr 24 ------- 2 1.0 5.0 75 77
+ 1.3172 2 3 cbr 24 ------- 2 1.0 5.0 75 77
r 1.317989 0 2 tcp 1064 ------- 1 0.0 4.0 1 78
+ 1.317989 2 3 tcp 1064 ------- 1 0.0 4.0 1 78
d 1.317989 2 3 tcp 1064 ------- 1 0.0 4.0 1 78
+ 1.319488 1 2 cbr 1000 ------- 2 1.0 5.0 78 82
- 1.319488 1 2 cbr 1000 ------- 2 1.0 5.0 78 82
+ 1.319488 1 2 cbr 24 ------- 2 1.0 5.0 79 83
- 1.320507 3 5 cbr 24 ------- 2 1.0 5.0 13 14
r 1.322245 0 2 tcp 1064 ------- 1 0.0 4.0 2 79
+ 1.322245 2 3 tcp 1064 ------- 1 0.0 4.0 2 79
d 1.322245 2 3 tcp 1064 ------- 1 0.0 4.0 2 79
r 1.3232 3 5 cbr 1000 ------- 2 1.0 5.0 10 11
- 1.323488 1 2 cbr 24 ------- 2 1.0 5.0 79 83
r 1.323584 3 5 cbr 24 ------- 2 1.0 5.0 11 12
r 1.325296 1 2 cbr 1000 ------- 2 1.0 5.0 76 80
+ 1.325296 2 3 cbr 1000 ------- 2 1.0 5.0 76 80
d 1.325296 2 3 cbr 1000 ------- 2 1.0 5.0 76 80
r 1.325392 1 2 cbr 24 ------- 2 1.0 5.0 77 81
+ 1.325392 2 3 cbr 24 ------- 2 1.0 5.0 77 81
d 1.325392 2 3 cbr 24 ------- 2 1.0 5.0 77 81
+ 1.32768 1 2 cbr 1000 ------- 2 1.0 5.0 80 84
- 1.32768 1 2 cbr 1000 ------- 2 1.0 5.0 80 84
+ 1.32768 1 2 cbr 24 ------- 2 1.0 5.0 81 85
- 1.33168 1 2 cbr 24 ------- 2 1.0 5.0 81 85
r 1.331813 2 3 cbr 1000 ------- 2 1.0 5.0 14 15
+ 1.331813 3 5 cbr 1000 ------- 2 1.0 5.0 14 15
- 1.331813 3 5 cbr 1000 ------- 2 1.0 5.0 14 15
r 1.332453 2 3 cbr 24 ------- 2 1.0 5.0 15 16
+ 1.332453 3 5 cbr 24 ------- 2 1.0 5.0 15 16
r 1.333488 1 2 cbr 1000 ------- 2 1.0 5.0 78 82
+ 1.333488 2 3 cbr 1000 ------- 2 1.0 5.0 78 82
d 1.333488 2 3 cbr 1000 ------- 2 1.0 5.0 78 82
r 1.333584 1 2 cbr 24 ------- 2 1.0 5.0 79 83
+ 1.333584 2 3 cbr 24 ------- 2 1.0 5.0 79 83
d 1.333584 2 3 cbr 24 ------- 2 1.0 5.0 79 83
+ 1.335872 1 2 cbr 1000 ------- 2 1.0 5.0 82 86
- 1.335872 1 2 cbr 1000 ------- 2 1.0 5.0 82 86
+ 1.335872 1 2 cbr 24 ------- 2 1.0 5.0 83 87
- 1.339872 1 2 cbr 24 ------- 2 1.0 5.0 83 87
- 1.34104 2 3 cbr 24 ------- 2 1.0 5.0 23 24
r 1.34168 1 2 cbr 1000 ------- 2 1.0 5.0 80 84
+ 1.34168 2 3 cbr 1000 ------- 2 1.0 5.0 80 84
- 1.34168 2 3 cbr 1000 ------- 2 1.0 5.0 24 25
r 1.341776 1 2 cbr 24 ------- 2 1.0 5.0 81 85
+ 1.341776 2 3 cbr 24 ------- 2 1.0 5.0 81 85
+ 1.344064 1 2 cbr 1000 ------- 2 1.0 5.0 84 88
- 1.344064 1 2 cbr 1000 ------- 2 1.0 5.0 84 88
+ 1.344064 1 2 cbr 24 ------- 2 1.0 5.0 85 89
- 1.347813 3 5 cbr 24 ------- 2 1.0 5.0 15 16
- 1.348064 1 2 cbr 24 ------- 2 1.0 5.0 85 89
r 1.349872 1 2 cbr 1000 ------- 2 1.0 5.0 82 86
+ 1.349872 2 3 cbr 1000 ------- 2 1.0 5.0 82 86
d 1.349872 2 3 cbr 1000 ------- 2 1.0 5.0 82 86
r 1.349968 1 2 cbr 24 ------- 2 1.0 5.0 83 87
+ 1.349968 2 3 cbr 24 ------- 2 1.0 5.0 83 87
d 1.349968 2 3 cbr 24 ------- 2 1.0 5.0 83 87
r 1.350507 3 5 cbr 1000 ------- 2 1.0 5.0 12 13
r 1.350891 3 5 cbr 24 ------- 2 1.0 5.0 13 14
+ 1.352256 1 2 cbr 1000 ------- 2 1.0 5.0 86 90
- 1.352256 1 2 cbr 1000 ------- 2 1.0 5.0 86 90
+ 1.352256 1 2 cbr 24 ------- 2 1.0 5.0 87 91
- 1.356256 1 2 cbr 24 ------- 2 1.0 5.0 87 91
r 1.358064 1 2 cbr 1000 ------- 2 1.0 5.0 84 88
+ 1.358064 2 3 cbr 1000 ------- 2 1.0 5.0 84 88
d 1.358064 2 3 cbr 1000 ------- 2 1.0 5.0 84 88
r 1.35816 1 2 cbr 24 ------- 2 1.0 5.0 85 89
+ 1.35816 2 3 cbr 24 ------- 2 1.0 5.0 85 89
d 1.35816 2 3 cbr 24 ------- 2 1.0 5.0 85 89
r 1.35912 2 3 cbr 1000 ------- 2 1.0 5.0 16 17
+ 1.35912 3 5 cbr 1000 ------- 2 1.0 5.0 16 17
- 1.35912 3 5 cbr 1000 ------- 2 1.0 5.0 16 17
r 1.35976 2 3 cbr 24 ------- 2 1.0 5.0 17 18
+ 1.35976 3 5 cbr 24 ------- 2 1.0 5.0 17 18
+ 1.360448 1 2 cbr 1000 ------- 2 1.0 5.0 88 92
- 1.360448 1 2 cbr 1000 ------- 2 1.0 5.0 88 92
+ 1.360448 1 2 cbr 24 ------- 2 1.0 5.0 89 93
- 1.364448 1 2 cbr 24 ------- 2 1.0 5.0 89 93
r 1.366256 1 2 cbr 1000 ------- 2 1.0 5.0 86 90
+ 1.366256 2 3 cbr 1000 ------- 2 1.0 5.0 86 90
d 1.366256 2 3 cbr 1000 ------- 2 1.0 5.0 86 90
r 1.366352 1 2 cbr 24 ------- 2 1.0 5.0 87 91
+ 1.366352 2 3 cbr 24 ------- 2 1.0 5.0 87 91
d 1.366352 2 3 cbr 24 ------- 2 1.0 5.0 87 91
- 1.368347 2 3 cbr 24 ------- 2 1.0 5.0 25 26
+ 1.36864 1 2 cbr 1000 ------- 2 1.0 5.0 90 94
- 1.36864 1 2 cbr 1000 ------- 2 1.0 5.0 90 94
+ 1.36864 1 2 cbr 24 ------- 2 1.0 5.0 91 95
- 1.368987 2 3 cbr 1000 ------- 2 1.0 5.0 26 27
- 1.37264 1 2 cbr 24 ------- 2 1.0 5.0 91 95
r 1.374448 1 2 cbr 1000 ------- 2 1.0 5.0 88 92
+ 1.374448 2 3 cbr 1000 ------- 2 1.0 5.0 88 92
r 1.374544 1 2 cbr 24 ------- 2 1.0 5.0 89 93
+ 1.374544 2 3 cbr 24 ------- 2 1.0 5.0 89 93
- 1.37512 3 5 cbr 24 ------- 2 1.0 5.0 17 18
+ 1.376832 1 2 cbr 1000 ------- 2 1.0 5.0 92 96
- 1.376832 1 2 cbr 1000 ------- 2 1.0 5.0 92 96
+ 1.376832 1 2 cbr 24 ------- 2 1.0 5.0 93 97
r 1.377813 3 5 cbr 1000 ------- 2 1.0 5.0 14 15
r 1.378197 3 5 cbr 24 ------- 2 1.0 5.0 15 16
- 1.380832 1 2 cbr 24 ------- 2 1.0 5.0 93 97
r 1.38264 1 2 cbr 1000 ------- 2 1.0 5.0 90 94
+ 1.38264 2 3 cbr 1000 ------- 2 1.0 5.0 90 94
d 1.38264 2 3 cbr 1000 ------- 2 1.0 5.0 90 94
r 1.382736 1 2 cbr 24 ------- 2 1.0 5.0 91 95
+ 1.382736 2 3 cbr 24 ------- 2 1.0 5.0 91 95
d 1.382736 2 3 cbr 24 ------- 2 1.0 5.0 91 95
+ 1.385024 1 2 cbr 1000 ------- 2 1.0 5.0 94 98
- 1.385024 1 2 cbr 1000 ------- 2 1.0 5.0 94 98
+ 1.385024 1 2 cbr 24 ------- 2 1.0 5.0 95 99
r 1.386427 2 3 cbr 1000 ------- 2 1.0 5.0 18 19
+ 1.386427 3 5 cbr 1000 ------- 2 1.0 5.0 18 19
- 1.386427 3 5 cbr 1000 ------- 2 1.0 5.0 18 19
r 1.387067 2 3 cbr 24 ------- 2 1.0 5.0 19 20
+ 1.387067 3 5 cbr 24 ------- 2 1.0 5.0 19 20
- 1.389024 1 2 cbr 24 ------- 2 1.0 5.0 95 99
r 1.390832 1 2 cbr 1000 ------- 2 1.0 5.0 92 96
+ 1.390832 2 3 cbr 1000 ------- 2 1.0 5.0 92 96
d 1.390832 2 3 cbr 1000 ------- 2 1.0 5.0 92 96
r 1.390928 1 2 cbr 24 ------- 2 1.0 5.0 93 97
+ 1.390928 2 3 cbr 24 ------- 2 1.0 5.0 93 97
d 1.390928 2 3 cbr 24 ------- 2 1.0 5.0 93 97
+ 1.393216 1 2 cbr 1000 ------- 2 1.0 5.0 96 100
- 1.393216 1 2 cbr 1000 ------- 2 1.0 5.0 96 100
+ 1.393216 1 2 cbr 24 ------- 2 1.0 5.0 97 101
- 1.395653 2 3 cbr 24 ------- 2 1.0 5.0 27 28
- 1.396293 2 3 cbr 1000 ------- 2 1.0 5.0 28 29
- 1.397216 1 2 cbr 24 ------- 2 1.0 5.0 97 101
r 1.399024 1 2 cbr 1000 ------- 2 1.0 5.0 94 98
+ 1.399024 2 3 cbr 1000 ------- 2 1.0 5.0 94 98
r 1.39912 1 2 cbr 24 ------- 2 1.0 5.0 95 99
+ 1.39912 2 3 cbr 24 ------- 2 1.0 5.0 95 99
+ 1.401408 1 2 cbr 1000 ------- 2 1.0 5.0 98 102
- 1.401408 1 2 cbr 1000 ------- 2 1.0 5.0 98 102
+ 1.401408 1 2 cbr 24 ------- 2 1.0 5.0 99 103
- 1.402427 3 5 cbr 24 ------- 2 1.0 5.0 19 20
r 1.40512 3 5 cbr 1000 ------- 2 1.0 5.0 16 17
- 1.405408 1 2 cbr 24 ------- 2 1.0 5.0 99 103
r 1.405504 3 5 cbr 24 ------- 2 1.0 5.0 17 18
r 1.407216 1 2 cbr 1000 ------- 2 1.0 5.0 96 100
+ 1.407216 2 3 cbr 1000 ------- 2 1.0 5.0 96 100
d 1.407216 2 3 cbr 1000 ------- 2 1.0 5.0 96 100
r 1.407312 1 2 cbr 24 ------- 2 1.0 5.0 97 101
+ 1.407312 2 3 cbr 24 ------- 2 1.0 5.0 97 101
d 1.407312 2 3 cbr 24 ------- 2 1.0 5.0 97 101
+ 1.4096 1 2 cbr 1000 ------- 2 1.0 5.0 100 104
- 1.4096 1 2 cbr 1000 ------- 2 1.0 5.0 100 104
+ 1.4096 1 2 cbr 24 ------- 2 1.0 5.0 101 105
- 1.4136 1 2 cbr 24 ------- 2 1.0 5.0 101 105
r 1.413733 2 3 cbr 1000 ------- 2 1.0 5.0 20 21
+ 1.413733 3 5 cbr 1000 ------- 2 1.0 5.0 20 21
- 1.413733 3 5 cbr 1000 ------- 2 1.0 5.0 20 21
r 1.414373 2 3 cbr 24 ------- 2 1.0 5.0 21 22
+ 1.414373 3 5 cbr 24 ------- 2 1.0 5.0 21 22
r 1.415408 1 2 cbr 1000 ------- 2 1.0 5.0 98 102
+ 1.415408 2 3 cbr 1000 ------- 2 1.0 5.0 98 102
d 1.415408 2 3 cbr 1000 ------- 2 1.0 5.0 98 102
r 1.415504 1 2 cbr 24 ------- 2 1.0 5.0 99 103
+ 1.415504 2 3 cbr 24 ------- 2 1.0 5.0 99 103
d 1.415504 2 3 cbr 24 ------- 2 1.0 5.0 99 103
+ 1.417792 1 2 cbr 1000 ------- 2 1.0 5.0 102 106
- 1.417792 1 2 cbr 1000 ------- 2 1.0 5.0 102 106
+ 1.417792 1 2 cbr 24 ------- 2 1.0 5.0 103 107
- 1.421792 1 2 cbr 24 ------- 2 1.0 5.0 103 107
- 1.42296 2 3 cbr 24 ------- 2 1.0 5.0 29 30
r 1.4236 1 2 cbr 1000 ------- 2 1.0 5.0 100 104
+ 1.4236 2 3 cbr 1000 ------- 2 1.0 5.0 100 104
- 1.4236 2 3 cbr 1000 ------- 2 1.0 5.0 30 31
r 1.423696 1 2 cbr 24 ------- 2 1.0 5.0 101 105
+ 1.423696 2 3 cbr 24 ------- 2 1.0 5.0 101 105
+ 1.425984 1 2 cbr 1000 ------- 2 1.0 5.0 104 108
- 1.425984 1 2 cbr 1000 ------- 2 1.0 5.0 104 108
+ 1.425984 1 2 cbr 24 ------- 2 1.0 5.0 105 109
- 1.429733 3 5 cbr 24 ------- 2 1.0 5.0 21 22
- 1.429984 1 2 cbr 24 ------- 2 1.0 5.0 105 109
r 1.431792 1 2 cbr 1000 ------- 2 1.0 5.0 102 106
+ 1.431792 2 3 cbr 1000 ------- 2 1.0 5.0 102 106
d 1.431792 2 3 cbr 1000 ------- 2 1.0 5.0 102 106
r 1.431888 1 2 cbr 24 ------- 2 1.0 5.0 103 107
+ 1.431888 2 3 cbr 24 ------- 2 1.0 5.0 103 107
d 1.431888 2 3 cbr 24 ------- 2 1.0 5.0 103 107
r 1.432427 3 5 cbr 1000 ------- 2 1.0 5.0 18 19
r 1.432811 3 5 cbr 24 ------- 2 1.0 5.0 19 20
+ 1.434176 1 2 cbr 1000 ------- 2 1.0 5.0 106 110
- 1.434176 1 2 cbr 1000 ------- 2 1.0 5.0 106 110
+ 1.434176 1 2 cbr 24 ------- 2 1.0 5.0 107 111
- 1.438176 1 2 cbr 24 ------- 2 1.0 5.0 107 111
r 1.439984 1 2 cbr 1000 ------- 2 1.0 5.0 104 108
+ 1.439984 2 3 cbr 1000 ------- 2 1.0 5.0 104 108
d 1.439984 2 3 cbr 1000 ------- 2 1.0 5.0 104 108
r 1.44008 1 2 cbr 24 ------- 2 1.0 5.0 105 109
+ 1.44008 2 3 cbr 24 ------- 2 1.0 5.0 105 109
d 1.44008 2 3 cbr 24 ------- 2 1.0 5.0 105 109
r 1.44104 2 3 cbr 1000 ------- 2 1.0 5.0 22 23
+ 1.44104 3 5 cbr 1000 ------- 2 1.0 5.0 22 23
- 1.44104 3 5 cbr 1000 ------- 2 1.0 5.0 22 23
r 1.44168 2 3 cbr 24 ------- 2 1.0 5.0 23 24
+ 1.44168 3 5 cbr 24 ------- 2 1.0 5.0 23 24
+ 1.442368 1 2 cbr 1000 ------- 2 1.0 5.0 108 112
- 1.442368 1 2 cbr 1000 ------- 2 1.0 5.0 108 112
+ 1.442368 1 2 cbr 24 ------- 2 1.0 5.0 109 113
- 1.446368 1 2 cbr 24 ------- 2 1.0 5.0 109 113
r 1.448176 1 2 cbr 1000 ------- 2 1.0 5.0 106 110
+ 1.448176 2 3 cbr 1000 ------- 2 1.0 5.0 106 110
d 1.448176 2 3 cbr 1000 ------- 2 1.0 5.0 106 110
r 1.448272 1 2 cbr 24 ------- 2 1.0 5.0 107 111
+ 1.448272 2 3 cbr 24 ------- 2 1.0 5.0 107 111
d 1.448272 2 3 cbr 24 ------- 2 1.0 5.0 107 111
- 1.450267 2 3 cbr 24 ------- 2 1.0 5.0 31 32
+ 1.45056 1 2 cbr 1000 ------- 2 1.0 5.0 110 114
- 1.45056 1 2 cbr 1000 ------- 2 1.0 5.0 110 114
+ 1.45056 1 2 cbr 24 ------- 2 1.0 5.0 111 115
- 1.450907 2 3 cbr 1000 ------- 2 1.0 5.0 32 33
- 1.45456 1 2 cbr 24 ------- 2 1.0 5.0 111 115
r 1.456368 1 2 cbr 1000 ------- 2 1.0 5.0 108 112
+ 1.456368 2 3 cbr 1000 ------- 2 1.0 5.0 108 112
r 1.456464 1 2 cbr 24 ------- 2 1.0 5.0 109 113
+ 1.456464 2 3 cbr 24 ------- 2 1.0 5.0 109 113
- 1.45704 3 5 cbr 24 ------- 2 1.0 5.0 23 24
+ 1.458752 1 2 cbr 1000 ------- 2 1.0 5.0 112 116
- 1.458752 1 2 cbr 1000 ------- 2 1.0 5.0 112 116
+ 1.458752 1 2 cbr 24 ------- 2 1.0 5.0 113 117
r 1.459733 3 5 cbr 1000 ------- 2 1.0 5.0 20 21
r 1.460117 3 5 cbr 24 ------- 2 1.0 5.0 21 22
- 1.462752 1 2 cbr 24 ------- 2 1.0 5.0 113 117
r 1.46456 1 2 cbr 1000 ------- 2 1.0 5.0 110 114
+ 1.46456 2 3 cbr 1000 ------- 2 1.0 5.0 110 114
d 1.46456 2 3 cbr 1000 ------- 2 1.0 5.0 110 114
r 1.464656 1 2 cbr 24 ------- 2 1.0 5.0 111 115
+ 1.464656 2 3 cbr 24 ------- 2 1.0 5.0 111 115
d 1.464656 2 3 cbr 24 ------- 2 1.0 5.0 111 115
+ 1.466944 1 2 cbr 1000 ------- 2 1.0 5.0 114 118
- 1.466944 1 2 cbr 1000 ------- 2 1.0 5.0 114 118
+ 1.466944 1 2 cbr 24 ------- 2 1.0 5.0 115 119
r 1.468347 2 3 cbr 1000 ------- 2 1.0 5.0 24 25
+ 1.468347 3 5 cbr 1000 ------- 2 1.0 5.0 24 25
- 1.468347 3 5 cbr 1000 ------- 2 1.0 5.0 24 25
r 1.468987 2 3 cbr 24 ------- 2 1.0 5.0 25 26