V -t * -v 1.0a5 -a 0
A -t * -n 1 -p 0 -o 0x7fffffff -c 30 -a 1
A -t * -h 1 -m 1073741823 -s 0
c -t * -i 1 -n Blue
c -t * -i 2 -n Red
n -t * -a 4 -s 4 -S UP -v circle -c black -i black
n -t * -a 0 -s 0 -S UP -v circle -c black -i black
n -t * -a 5 -s 5 -S UP -v circle -c black -i black
n -t * -a 1 -s 1 -S UP -v circle -c black -i black
n -t * -a 6 -s 6 -S UP -v circle -c black -i black
n -t * -a 2 -s 2 -S UP -v circle -c black -i black
n -t * -a 7 -s 7 -S UP -v circle -c black -i black
n -t * -a 3 -s 3 -S UP -v circle -c black -i black
l -t * -s 0 -d 2 -S UP -r 2000000 -D 0.01 -c black -o right-down
l -t * -s 1 -d 2 -S UP -r 2000000 -D 0.01 -c black -o right-up
l -t * -s 2 -d 5 -S UP -r 300000 -D 0.050000000000000003 -c black -o left
l -t * -s 1 -d 7 -S UP -r 1000000 -D 0.01 -c black -o down
X -t * -n 8 -r 0.5Mb -D 40ms -o left
L -t * -s 8 -d 3 -o up
L -t * -s 8 -d 4 -o down
L -t * -s 8 -d 5 -o up
L -t * -s 8 -d 6 -o down
+ -t 1 -s 1 -d 2 -p cbr -e 1000 -c 2 -i 0 -a 2 -x {1.0 3.0 0 ------- null}
- -t 1 -s 1 -d 2 -p cbr -e 1000 -c 2 -i 0 -a 2 -x {1.0 3.0 0 ------- null}
h -t 1 -s 1 -d 2 -p cbr -e 1000 -c 2 -i 0 -a 2 -x {1.0 3.0 -1 ------- null}
+ -t 1 -s 1 -d 2 -p cbr -e 24 -c 2 -i 1 -a 2 -x {1.0 3.0 1 ------- null}
- -t 1.004 -s 1 -d 2 -p cbr -e 24 -c 2 -i 1 -a 2 -x {1.0 3.0 1 ------- null}
h -t 1.004 -s 1 -d 2 -p cbr -e 24 -c 2 -i 1 -a 2 -x {1.0 3.0 -1 ------- null}
+ -t 1.008192 -s 1 -d 2 -p cbr -e 1000 -c 2 -i 2 -a 2 -x {1.0 3.0 2 ------- null}
- -t 1.008192 -s 1 -d 2 -p cbr -e 1000 -c 2 -i 2 -a 2 -x {1.0 3.0 2 ------- null}
h -t 1.008192 -s 1 -d 2 -p cbr -e 1000 -c 2 -i 2 -a 2 -x {1.0 3.0 -1 ------- null}
+ -t 1.008192 -s 1 -d 2 -p cbr -e 24 -c 2 -i 3 -a 2 -x {1.0 3.0 3 ------- null}
- -t 1.012192 -s 1 -d 2 -p cbr -e 24 -c 2 -i 3 -a 2 -x {1.0 3.0 3 ------- null}
h -t 1.012192 -s 1 -d 2 -p cbr -e 24 -c 2 -i 3 -a 2 -x {1.0 3.0 -1 ------- null}
r -t 1.014 -s 1 -d 2 -p cbr -e 1000 -c 2 -i 0 -a 2 -x {1.0 3.0 0 ------- null}
+ -t 1.014 -s 2 -d 5 -p cbr -e 1000 -c 2 -i 0 -a 2 -x {1.0 3.0 0 ------- null}
- -t 1.014 -s 2 -d 5 -p cbr -e 1000 -c 2 -i 0 -a 2 -x {1.0 3.0 0 ------- null}
h -t 1.014 -s 2 -d 5 -p cbr -e 1000 -c 2 -i 0 -a 2 -x {1.0 3.0 -1 ------- null}
r -t 1.014096 -s 1 -d 2 -p cbr -e 24 -c 2 -i 1 -a 2 -x {1.0 3.0 1 ------- null}
+ -t 1.014096 -s 2 -d 5 -p cbr -e 24 -c 2 -i 1 -a 2 -x {1.0 3.0 1 ------- null}
+ -t 1.016384 -s 1 -d 2 -p cbr -e 1000 -c 2 -i 4 -a 2 -x {1.0 3.0 4 ------- null}
- -t 1.016384 -s 1 -d 2 -p cbr -e 1000 -c 2 -i 4 -a 2 -x {1.0 3.0 4 ------- null}
h -t 1.016384 -s 1 -d 2 -p cbr -e 1000 -c 2 -i 4 -a 2 -x {1.0 3.0 -1 ------- null}
+ -t 1.016384 -s 1 -d 2 -p cbr -e 24 -c 2 -i 5 -a 2 -x {1.0 3.0 5 ------- null}
- -t 1.020384 -s 1 -d 2 -p cbr -e 24 -c 2 -i 5 -a 2 -x {1.0 3.0 5 ------- null}
h -t 1.020384 -s 1 -d 2 -p cbr -e 24 -c 2 -i 5 -a 2 -x {1.0 3.0 -1 ------- null}
r -t 1.022192 -s 1 -d 2 -p cbr -e 1000 -c 2 -i 2 -a 2 -x {1.0 3.0 2 ------- null}
+ -t 1.022192 -s 2 -d 5 -p cbr -e 1000 -c 2 -i 2 -a 2 -x {1.0 3.0 2 ------- null}
r -t 1.022288 -s 1 -d 2 -p cbr -e 24 -c 2 -i 3 -a 2 -x {1.0 3.0 3 ------- null}
+ -t 1.022288 -s 2 -d 5 -p cbr -e 24 -c 2 -i 3 -a 2 -x {1.0 3.0 3 ------- null}
+ -t 1.024576 -s 1 -d 2 -p cbr -e 1000 -c 2 -i 6 -a 2 -x {1.0 3.0 6 ------- null}
- -t 1.024576 -s 1 -d 2 -p cbr -e 1000 -c 2 -i 6 -a 2 -x {1.0 3.0 6 ------- null}
h -t 1.024576 -s 1 -d 2 -p cbr -e 1000 -c 2 -i 6 -a 2 -x {1.0 3.0 -1 ------- null}
+ -t 1.024576 -s 1 -d 2 -p cbr -e 24 -c 2 -i 7 -a 2 -x {1.0 3.0 7 ------- null}
- -t 1.028576 -s 1 -d 2 -p cbr -e 24 -c 2 -i 7 -a 2 -x {1.0 3.0 7 ------- null}
h -t 1.028576 -s 1 -d 2 -p cbr -e 24 -c 2 -i 7 -a 2 -x {1.0 3.0 -1 ------- null}
r -t 1.030384 -s 1 -d 2 -p cbr -e 1000 -c 2 -i 4 -a 2 -x {1.0 3.0 4 ------- null}
+ -t 1.030384 -s 2 -d 5 -p cbr -e 1000 -c 2 -i 4 -a 2 -x {1.0 3.0 4 ------- null}
r -t 1.03048 -s 1 -d 2 -p cbr -e 24 -c 2 -i 5 -a 2 -x {1.0 3.0 5 ------- null}
+ -t 1.03048 -s 2 -d 5 -p cbr -e 24 -c 2 -i 5 -a 2 -x {1.0 3.0 5 ------- null}
+ -t 1.032768 -s 1 -d 2 -p cbr -e 1000 -c 2 -i 8 -a 2 -x {1.0 3.0 8 ------- null}
- -t 1.032768 -s 1 -d 2 -p cbr -e 1000 -c 2 -i 8 -a 2 -x {1.0 3.0 8 ------- null}
h -t 1.032768 -s 1 -d 2 -p cbr -e 1000 -c 2 -i 8 -a 2 -x {1.0 3.0 -1 ------- null}
+ -t 1.032768 -s 1 -d 2 -p cbr -e 24 -c 2 -i 9 -a 2 -x {1.0 3.0 9 ------- null}
- -t 1.036768 -s 1 -d 2 -p cbr -e 24 -c 2 -i 9 -a 2 -x {1.0 3.0 9 ------- null}
h -t 1.036768 -s 1 -d 2 -p cbr -e 24 -c 2 -i 9 -a 2 -x {1.0 3.0 -1 ------- null}
r -t 1.038576 -s 1 -d 2 -p cbr -e 1000 -c 2 -i 6 -a 2 -x {1.0 3.0 6 ------- null}
+ -t 1.038576 -s 2 -d 5 -p cbr -e 1000 -c 2 -i 6 -a 2 -x {1.0 3.0 6 ------- null}
r -t 1.038672 -s 1 -d 2 -p cbr -e 24 -c 2 -i 7 -a 2 -x {1.0 3.0 7 ------- null}
+ -t 1.038672 -s 2 -d 5 -p cbr -e 24 -c 2 -i 7 -a 2 -x {1.0 3.0 7 ------- null}
- -t 1.04066666666667 -s 2 -d 5 -p cbr -e 24 -c 2 -i 1 -a 2 -x {1.0 3.0 1 ------- null}
h -t 1.04066666666667 -s 2 -d 5 -p cbr -e 24 -c 2 -i 1 -a 2 -x {1.0 3.0 -1 ------- null}
+ -t 1.04096 -s 1 -d 2 -p cbr -e 1000 -c 2 -i 10 -a 2 -x {1.0 3.0 10 ------- null}
- -t 1.04096 -s 1 -d 2 -p cbr -e 1000 -c 2 -i 10 -a 2 -x {1.0 3.0 10 ------- null}
h -t 1.04096 -s 1 -d 2 -p cbr -e 1000 -c 2 -i 10 -a 2 -x {1.0 3.0 -1 ------- null}
+ -t 1.04096 -s 1 -d 2 -p cbr -e 24 -c 2 -i 11 -a 2 -x {1.0 3.0 11 ------- null}
- -t 1.04130666666667 -s 2 -d 5 -p cbr -e 1000 -c 2 -i 2 -a 2 -x {1.0 3.0 2 ------- null}
h -t 1.04130666666667 -s 2 -d 5 -p cbr -e 1000 -c 2 -i 2 -a 2 -x {1.0 3.0 -1 ------- null}
- -t 1.04496 -s 1 -d 2 -p cbr -e 24 -c 2 -i 11 -a 2 -x {1.0 3.0 11 ------- null}
h -t 1.04496 -s 1 -d 2 -p cbr -e 24 -c 2 -i 11 -a 2 -x {1.0 3.0 -1 ------- null}
r -t 1.046768 -s 1 -d 2 -p cbr -e 1000 -c 2 -i 8 -a 2 -x {1.0 3.0 8 ------- null}
+ -t 1.046768 -s 2 -d 5 -p cbr -e 1000 -c 2 -i 8 -a 2 -x {1.0 3.0 8 ------- null}
r -t 1.046864 -s 1 -d 2 -p cbr -e 24 -c 2 -i 9 -a 2 -x {1.0 3.0 9 ------- null}
+ -t 1.046864 -s 2 -d 5 -p cbr -e 24 -c 2 -i 9 -a 2 -x {1.0 3.0 9 ------- null}
+ -t 1.049152 -s 1 -d 2 -p cbr -e 1000 -c 2 -i 12 -a 2 -x {1.0 3.0 12 ------- null}
- -t 1.049152 -s 1 -d 2 -p cbr -e 1000 -c 2 -i 12 -a 2 -x {1.0 3.0 12 ------- null}
h -t 1.049152 -s 1 -d 2 -p cbr -e 1000 -c 2 -i 12 -a 2 -x {1.0 3.0 -1 ------- null}
+ -t 1.049152 -s 1 -d 2 -p cbr -e 24 -c 2 -i 13 -a 2 -x {1.0 3.0 13 ------- null}
- -t 1.053152 -s 1 -d 2 -p cbr -e 24 -c 2 -i 13 -a 2 -x {1.0 3.0 13 ------- null}
h -t 1.053152 -s 1 -d 2 -p cbr -e 24 -c 2 -i 13 -a 2 -x {1.0 3.0 -1 ------- null}
r -t 1.05496 -s 1 -d 2 -p cbr -e 1000 -c 2 -i 10 -a 2 -x {1.0 3.0 10 ------- null}
+ -t 1.05496 -s 2 -d 5 -p cbr -e 1000 -c 2 -i 10 -a 2 -x {1.0 3.0 10 ------- null}
r -t 1.055056 -s 1 -d 2 -p cbr -e 24 -c 2 -i 11 -a 2 -x {1.0 3.0 11 ------- null}
+ -t 1.055056 -s 2 -d 5 -p cbr -e 24 -c 2 -i 11 -a 2 -x {1.0 3.0 11 ------- null}
+ -t 1.057344 -s 1 -d 2 -p cbr -e 1000 -c 2 -i 14 -a 2 -x {1.0 3.0 14 ------- null}
- -t 1.057344 -s 1 -d 2 -p cbr -e 1000 -c 2 -i 14 -a 2 -x {1.0 3.0 14 ------- null}
h -t 1.057344 -s 1 -d 2 -p cbr -e 1000 -c 2 -i 14 -a 2 -x {1.0 3.0 -1 ------- null}
+ -t 1.057344 -s 1 -d 2 -p cbr -e 24 -c 2 -i 15 -a 2 -x {1.0 3.0 15 ------- null}
- -t 1.061344 -s 1 -d 2 -p cbr -e 24 -c 2 -i 15 -a 2 -x {1.0 3.0 15 ------- null}
h -t 1.061344 -s 1 -d 2 -p cbr -e 24 -c 2 -i 15 -a 2 -x {1.0 3.0 -1 ------- null}
r -t 1.063152 -s 1 -d 2 -p cbr -e 1000 -c 2 -i 12 -a 2 -x {1.0 3.0 12 ------- null}
+ -t 1.063152 -s 2 -d 5 -p cbr -e 1000 -c 2 -i 12 -a 2 -x {1.0 3.0 12 ------- null}
r -t 1.063248 -s 1 -d 2 -p cbr -e 24 -c 2 -i 13 -a 2 -x {1.0 3.0 13 ------- null}
+ -t 1.063248 -s 2 -d 5 -p cbr -e 24 -c 2 -i 13 -a 2 -x {1.0 3.0 13 ------- null}
+ -t 1.065536 -s 1 -d 2 -p cbr -e 1000 -c 2 -i 16 -a 2 -x {1.0 3.0 16 ------- null}
- -t 1.065536 -s 1 -d 2 -p cbr -e 1000 -c 2 -i 16 -a 2 -x {1.0 3.0 16 ------- null}
h -t 1.065536 -s 1 -d 2 -p cbr -e 1000 -c 2 -i 16 -a 2 -x {1.0 3.0 -1 ------- null}
+ -t 1.065536 -s 1 -d 2 -p cbr -e 24 -c 2 -i 17 -a 2 -x {1.0 3.0 17 ------- null}
- -t 1.06797333333333 -s 2 -d 5 -p cbr -e 24 -c 2 -i 3 -a 2 -x {1.0 3.0 3 ------- null}
h -t 1.06797333333333 -s 2 -d 5 -p cbr -e 24 -c 2 -i 3 -a 2 -x {1.0 3.0 -1 ------- null}
- -t 1.06861333333333 -s 2 -d 5 -p cbr -e 1000 -c 2 -i 4 -a 2 -x {1.0 3.0 4 ------- null}
h -t 1.06861333333333 -s 2 -d 5 -p cbr -e 1000 -c 2 -i 4 -a 2 -x {1.0 3.0 -1 ------- null}
- -t 1.069536 -s 1 -d 2 -p cbr -e 24 -c 2 -i 17 -a 2 -x {1.0 3.0 17 ------- null}
h -t 1.069536 -s 1 -d 2 -p cbr -e 24 -c 2 -i 17 -a 2 -x {1.0 3.0 -1 ------- null}
r -t 1.071344 -s 1 -d 2 -p cbr -e 1000 -c 2 -i 14 -a 2 -x {1.0 3.0 14 ------- null}
+ -t 1.071344 -s 2 -d 5 -p cbr -e 1000 -c 2 -i 14 -a 2 -x {1.0 3.0 14 ------- null}
r -t 1.07144 -s 1 -d 2 -p cbr -e 24 -c 2 -i 15 -a 2 -x {1.0 3.0 15 ------- null}
+ -t 1.07144 -s 2 -d 5 -p cbr -e 24 -c 2 -i 15 -a 2 -x {1.0 3.0 15 ------- null}
+ -t 1.073728 -s 1 -d 2 -p cbr -e 1000 -c 2 -i 18 -a 2 -x {1.0 3.0 18 ------- null}
- -t 1.073728 -s 1 -d 2 -p cbr -e 1000 -c 2 -i 18 -a 2 -x {1.0 3.0 18 ------- null}
h -t 1.073728 -s 1 -d 2 -p cbr -e 1000 -c 2 -i 18 -a 2 -x {1.0 3.0 -1 ------- null}
+ -t 1.073728 -s 1 -d 2 -p cbr -e 24 -c 2 -i 19 -a 2 -x {1.0 3.0 19 ------- null}
- -t 1.077728 -s 1 -d 2 -p cbr -e 24 -c 2 -i 19 -a 2 -x {1.0 3.0 19 ------- null}
h -t 1.077728 -s 1 -d 2 -p cbr -e 24 -c 2 -i 19 -a 2 -x {1.0 3.0 -1 ------- null}
r -t 1.079536 -s 1 -d 2 -p cbr -e 1000 -c 2 -i 16 -a 2 -x {1.0 3.0 16 ------- null}
+ -t 1.079536 -s 2 -d 5 -p cbr -e 1000 -c 2 -i 16 -a 2 -x {1.0 3.0 16 ------- null}
r -t 1.079632 -s 1 -d 2 -p cbr -e 24 -c 2 -i 17 -a 2 -x {1.0 3.0 17 ------- null}
+ -t 1.079632 -s 2 -d 5 -p cbr -e 24 -c 2 -i 17 -a 2 -x {1.0 3.0 17 ------- null}
+ -t 1.08192 -s 1 -d 2 -p cbr -e 1000 -c 2 -i 20 -a 2 -x {1.0 3.0 20 ------- null}
- -t 1.08192 -s 1 -d 2 -p cbr -e 1000 -c 2 -i 20 -a 2 -x {1.0 3.0 20 ------- null}
h -t 1.08192 -s 1 -d 2 -p cbr -e 1000 -c 2 -i 20 -a 2 -x {1.0 3.0 -1 ------- null}
+ -t 1.08192 -s 1 -d 2 -p cbr -e 24 -c 2 -i 21 -a 2 -x {1.0 3.0 21 ------- null}
- -t 1.08592 -s 1 -d 2 -p cbr -e 24 -c 2 -i 21 -a 2 -x {1.0 3.0 21 ------- null}
h -t 1.08592 -s 1 -d 2 -p cbr -e 24 -c 2 -i 21 -a 2 -x {1.0 3.0 -1 ------- null}
r -t 1.087728 -s 1 -d 2 -p cbr -e 1000 -c 2 -i 18 -a 2 -x {1.0 3.0 18 ------- null}
+ -t 1.087728 -s 2 -d 5 -p cbr -e 1000 -c 2 -i 18 -a 2 -x {1.0 3.0 18 ------- null}
r -t 1.087824 -s 1 -d 2 -p cbr -e 24 -c 2 -i 19 -a 2 -x {1.0 3.0 19 ------- null}
+ -t 1.087824 -s 2 -d 5 -p cbr -e 24 -c 2 -i 19 -a 2 -x {1.0 3.0 19 ------- null}
+ -t 1.090112 -s 1 -d 2 -p cbr -e 1000 -c 2 -i 22 -a 2 -x {1.0 3.0 22 ------- null}
- -t 1.090112 -s 1 -d 2 -p cbr -e 1000 -c 2 -i 22 -a 2 -x {1.0 3.0 22 ------- null}
h -t 1.090112 -s 1 -d 2 -p cbr -e 1000 -c 2 -i 22 -a 2 -x {1.0 3.0 -1 ------- null}
+ -t 1.090112 -s 1 -d 2 -p cbr -e 24 -c 2 -i 23 -a 2 -x {1.0 3.0 23 ------- null}
r -t 1.09066666666667 -s 2 -d 5 -p cbr -e 1000 -c 2 -i 0 -a 2 -x {1.0 3.0 0 ------- null}
h -t 1.09066666666667 -s 5 -d 8 -p cbr -e 1000 -c 2 -i 0 -a 2 -x {1.0 3.0 0 ------- null}
r -t 1.09130666666667 -s 2 -d 5 -p cbr -e 24 -c 2 -i 1 -a 2 -x {1.0 3.0 1 ------- null}
h -t 1.09130666666667 -s 5 -d 8 -p cbr -e 24 -c 2 -i 1 -a 2 -x {1.0 3.0 1 ------- null}
- -t 1.094112 -s 1 -d 2 -p cbr -e 24 -c 2 -i 23 -a 2 -x {1.0 3.0 23 ------- null}
h -t 1.094112 -s 1 -d 2 -p cbr -e 24 -c 2 -i 23 -a 2 -x {1.0 3.0 -1 ------- null}
- -t 1.09528 -s 2 -d 5 -p cbr -e 24 -c 2 -i 5 -a 2 -x {1.0 3.0 5 ------- null}
h -t 1.09528 -s 2 -d 5 -p cbr -e 24 -c 2 -i 5 -a 2 -x {1.0 3.0 -1 ------- null}
r -t 1.09592 -s 1 -d 2 -p cbr -e 1000 -c 2 -i 20 -a 2 -x {1.0 3.0 20 ------- null}
+ -t 1.09592 -s 2 -d 5 -p cbr -e 1000 -c 2 -i 20 -a 2 -x {1.0 3.0 20 ------- null}
- -t 1.09592 -s 2 -d 5 -p cbr -e 1000 -c 2 -i 6 -a 2 -x {1.0 3.0 6 ------- null}
h -t 1.09592 -s 2 -d 5 -p cbr -e 1000 -c 2 -i 6 -a 2 -x {1.0 3.0 -1 ------- null}
r -t 1.096016 -s 1 -d 2 -p cbr -e 24 -c 2 -i 21 -a 2 -x {1.0 3.0 21 ------- null}
+ -t 1.096016 -s 2 -d 5 -p cbr -e 24 -c 2 -i 21 -a 2 -x {1.0 3.0 21 ------- null}
+ -t 1.098304 -s 1 -d 2 -p cbr -e 1000 -c 2 -i 24 -a 2 -x {1.0 3.0 24 ------- null}
- -t 1.098304 -s 1 -d 2 -p cbr -e 1000 -c 2 -i 24 -a 2 -x {1.0 3.0 24 ------- null}
h -t 1.098304 -s 1 -d 2 -p cbr -e 1000 -c 2 -i 24 -a 2 -x {1.0 3.0 -1 ------- null}
+ -t 1.098304 -s 1 -d 2 -p cbr -e 24 -c 2 -i 25 -a 2 -x {1.0 3.0 25 ------- null}
- -t 1.102304 -s 1 -d 2 -p cbr -e 24 -c 2 -i 25 -a 2 -x {1.0 3.0 25 ------- null}
h -t 1.102304 -s 1 -d 2 -p cbr -e 24 -c 2 -i 25 -a 2 -x {1.0 3.0 -1 ------- null}
r -t 1.104112 -s 1 -d 2 -p cbr -e 1000 -c 2 -i 22 -a 2 -x {1.0 3.0 22 ------- null}
+ -t 1.104112 -s 2 -d 5 -p cbr -e 1000 -c 2 -i 22 -a 2 -x {1.0 3.0 22 ------- null}
r -t 1.104208 -s 1 -d 2 -p cbr -e 24 -c 2 -i 23 -a 2 -x {1.0 3.0 23 ------- null}
+ -t 1.104208 -s 2 -d 5 -p cbr -e 24 -c 2 -i 23 -a 2 -x {1.0 3.0 23 ------- null}
+ -t 1.106496 -s 1 -d 2 -p cbr -e 1000 -c 2 -i 26 -a 2 -x {1.0 3.0 26 ------- null}
- -t 1.106496 -s 1 -d 2 -p cbr -e 1000 -c 2 -i 26 -a 2 -x {1.0 3.0 26 ------- null}
h -t 1.106496 -s 1 -d 2 -p cbr -e 1000 -c 2 -i 26 -a 2 -x {1.0 3.0 -1 ------- null}
+ -t 1.106496 -s 1 -d 2 -p cbr -e 24 -c 2 -i 27 -a 2 -x {1.0 3.0 27 ------- null}
- -t 1.110496 -s 1 -d 2 -p cbr -e 24 -c 2 -i 27 -a 2 -x {1.0 3.0 27 ------- null}
h -t 1.110496 -s 1 -d 2 -p cbr -e 24 -c 2 -i 27 -a 2 -x {1.0 3.0 -1 ------- null}
r -t 1.112304 -s 1 -d 2 -p cbr -e 1000 -c 2 -i 24 -a 2 -x {1.0 3.0 24 ------- null}
+ -t 1.112304 -s 2 -d 5 -p cbr -e 1000 -c 2 -i 24 -a 2 -x {1.0 3.0 24 ------- null}
r -t 1.1124 -s 1 -d 2 -p cbr -e 24 -c 2 -i 25 -a 2 -x {1.0 3.0 25 ------- null}
+ -t 1.1124 -s 2 -d 5 -p cbr -e 24 -c 2 -i 25 -a 2 -x {1.0 3.0 25 ------- null}
+ -t 1.114688 -s 1 -d 2 -p cbr -e 1000 -c 2 -i 28 -a 2 -x {1.0 3.0 28 ------- null}
- -t 1.114688 -s 1 -d 2 -p cbr -e 1000 -c 2 -i 28 -a 2 -x {1.0 3.0 28 ------- null}
h -t 1.114688 -s 1 -d 2 -p cbr -e 1000 -c 2 -i 28 -a 2 -x {1.0 3.0 -1 ------- null}
+ -t 1.114688 -s 1 -d 2 -p cbr -e 24 -c 2 -i 29 -a 2 -x {1.0 3.0 29 ------- null}
r -t 1.11797333333333 -s 2 -d 5 -p cbr -e 1000 -c 2 -i 2 -a 2 -x {1.0 3.0 2 ------- null}
h -t 1.11797333333333 -s 5 -d 8 -p cbr -e 1000 -c 2 -i 2 -a 2 -x {1.0 3.0 2 ------- null}
r -t 1.11861333333333 -s 2 -d 5 -p cbr -e 24 -c 2 -i 3 -a 2 -x {1.0 3.0 3 ------- null}
h -t 1.11861333333333 -s 5 -d 8 -p cbr -e 24 -c 2 -i 3 -a 2 -x {1.0 3.0 3 ------- null}
- -t 1.118688 -s 1 -d 2 -p cbr -e 24 -c 2 -i 29 -a 2 -x {1.0 3.0 29 ------- null}
h -t 1.118688 -s 1 -d 2 -p cbr -e 24 -c 2 -i 29 -a 2 -x {1.0 3.0 -1 ------- null}
r -t 1.120496 -s 1 -d 2 -p cbr -e 1000 -c 2 -i 26 -a 2 -x {1.0 3.0 26 ------- null}
+ -t 1.120496 -s 2 -d 5 -p cbr -e 1000 -c 2 -i 26 -a 2 -x {1.0 3.0 26 ------- null}
d -t 1.120496 -s 2 -d 5 -p cbr -e 1000 -c 2 -i 26 -a 2 -x {1.0 3.0 26 ------- null}
r -t 1.120592 -s 1 -d 2 -p cbr -e 24 -c 2 -i 27 -a 2 -x {1.0 3.0 27 ------- null}
+ -t 1.120592 -s 2 -d 5 -p cbr -e 24 -c 2 -i 27 -a 2 -x {1.0 3.0 27 ------- null}
d -t 1.120592 -s 2 -d 5 -p cbr -e 24 -c 2 -i 27 -a 2 -x {1.0 3.0 27 ------- null}
- -t 1.12258666666667 -s 2 -d 5 -p cbr -e 24 -c 2 -i 7 -a 2 -x {1.0 3.0 7 ------- null}
h -t 1.12258666666667 -s 2 -d 5 -p cbr -e 24 -c 2 -i 7 -a 2 -x {1.0 3.0 -1 ------- null}
+ -t 1.12288 -s 1 -d 2 -p cbr -e 1000 -c 2 -i 30 -a 2 -x {1.0 3.0 30 ------- null}
- -t 1.12288 -s 1 -d 2 -p cbr -e 1000 -c 2 -i 30 -a 2 -x {1.0 3.0 30 ------- null}
h -t 1.12288 -s 1 -d 2 -p cbr -e 1000 -c 2 -i 30 -a 2 -x {1.0 3.0 -1 ------- null}
+ -t 1.12288 -s 1 -d 2 -p cbr -e 24 -c 2 -i 31 -a 2 -x {1.0 3.0 31 ------- null}
- -t 1.12322666666667 -s 2 -d 5 -p cbr -e 1000 -c 2 -i 8 -a 2 -x {1.0 3.0 8 ------- null}
h -t 1.12322666666667 -s 2 -d 5 -p cbr -e 1000 -c 2 -i 8 -a 2 -x {1.0 3.0 -1 ------- null}
- -t 1.12688 -s 1 -d 2 -p cbr -e 24 -c 2 -i 31 -a 2 -x {1.0 3.0 31 ------- null}
h -t 1.12688 -s 1 -d 2 -p cbr -e 24 -c 2 -i 31 -a 2 -x {1.0 3.0 -1 ------- null}
r -t 1.128688 -s 1 -d 2 -p cbr -e 1000 -c 2 -i 28 -a 2 -x {1.0 3.0 28 ------- null}
+ -t 1.128688 -s 2 -d 5 -p cbr -e 1000 -c 2 -i 28 -a 2 -x {1.0 3.0 28 ------- null}
r -t 1.128784 -s 1 -d 2 -p cbr -e 24 -c 2 -i 29 -a 2 -x {1.0 3.0 29 ------- null}
+ -t 1.128784 -s 2 -d 5 -p cbr -e 24 -c 2 -i 29 -a 2 -x {1.0 3.0 29 ------- null}
+ -t 1.13066666666667 -s 5 -d 8 -p cbr -e 1000 -c 2 -i 0 -a 2 -x {1.0 3.0 0 ------- null}
- -t 1.13066666666667 -s 5 -d 8 -p cbr -e 1000 -c 2 -i 0 -a 2 -x {1.0 3.0 0 ------- null}
h -t 1.13066666666667 -s 5 -d 8 -p cbr -e 1000 -c 2 -i 0 -a 2 -x {1.0 3.0 -1 ------- null}
d -t 1.13067066666667 -s 6 -d 8 -p cbr -e 1000 -c 2 -i 0 -a 2 -x {1.0 3.0 0 ------- null}
d -t 1.13067066666667 -s 4 -d 8 -p cbr -e 1000 -c 2 -i 0 -a 2 -x {1.0 3.0 0 ------- null}
+ -t 1.131072 -s 1 -d 2 -p cbr -e 1000 -c 2 -i 32 -a 2 -x {1.0 3.0 32 ------- null}
- -t 1.131072 -s 1 -d 2 -p cbr -e 1000 -c 2 -i 32 -a 2 -x {1.0 3.0 32 ------- null}
h -t 1.131072 -s 1 -d 2 -p cbr -e 1000 -c 2 -i 32 -a 2 -x {1.0 3.0 -1 ------- null}
+ -t 1.131072 -s 1 -d 2 -p cbr -e 24 -c 2 -i 33 -a 2 -x {1.0 3.0 33 ------- null}
+ -t 1.13130666666667 -s 5 -d 8 -p cbr -e 24 -c 2 -i 1 -a 2 -x {1.0 3.0 1 ------- null}
- -t 1.13492266666667 -s 5 -d 8 -p cbr -e 24 -c 2 -i 1 -a 2 -x {1.0 3.0 1 ------- null}
h -t 1.13492266666667 -s 5 -d 8 -p cbr -e 24 -c 2 -i 1 -a 2 -x {1.0 3.0 -1 ------- null}
d -t 1.13492666666667 -s 6 -d 8 -p cbr -e 24 -c 2 -i 1 -a 2 -x {1.0 3.0 1 ------- null}
d -t 1.13492666666667 -s 4 -d 8 -p cbr -e 24 -c 2 -i 1 -a 2 -x {1.0 3.0 1 ------- null}
- -t 1.135072 -s 1 -d 2 -p cbr -e 24 -c 2 -i 33 -a 2 -x {1.0 3.0 33 ------- null}
h -t 1.135072 -s 1 -d 2 -p cbr -e 24 -c 2 -i 33 -a 2 -x {1.0 3.0 -1 ------- null}
r -t 1.13688 -s 1 -d 2 -p cbr -e 1000 -c 2 -i 30 -a 2 -x {1.0 3.0 30 ------- null}
+ -t 1.13688 -s 2 -d 5 -p cbr -e 1000 -c 2 -i 30 -a 2 -x {1.0 3.0 30 ------- null}
d -t 1.13688 -s 2 -d 5 -p cbr -e 1000 -c 2 -i 30 -a 2 -x {1.0 3.0 30 ------- null}
r -t 1.136976 -s 1 -d 2 -p cbr -e 24 -c 2 -i 31 -a 2 -x {1.0 3.0 31 ------- null}
+ -t 1.136976 -s 2 -d 5 -p cbr -e 24 -c 2 -i 31 -a 2 -x {1.0 3.0 31 ------- null}
d -t 1.136976 -s 2 -d 5 -p cbr -e 24 -c 2 -i 31 -a 2 -x {1.0 3.0 31 ------- null}
+ -t 1.139264 -s 1 -d 2 -p cbr -e 1000 -c 2 -i 34 -a 2 -x {1.0 3.0 34 ------- null}
- -t 1.139264 -s 1 -d 2 -p cbr -e 1000 -c 2 -i 34 -a 2 -x {1.0 3.0 34 ------- null}
h -t 1.139264 -s 1 -d 2 -p cbr -e 1000 -c 2 -i 34 -a 2 -x {1.0 3.0 -1 ------- null}
+ -t 1.139264 -s 1 -d 2 -p cbr -e 24 -c 2 -i 35 -a 2 -x {1.0 3.0 35 ------- null}
- -t 1.143264 -s 1 -d 2 -p cbr -e 24 -c 2 -i 35 -a 2 -x {1.0 3.0 35 ------- null}
h -t 1.143264 -s 1 -d 2 -p cbr -e 24 -c 2 -i 35 -a 2 -x {1.0 3.0 -1 ------- null}
r -t 1.145072 -s 1 -d 2 -p cbr -e 1000 -c 2 -i 32 -a 2 -x {1.0 3.0 32 ------- null}
+ -t 1.145072 -s 2 -d 5 -p cbr -e 1000 -c 2 -i 32 -a 2 -x {1.0 3.0 32 ------- null}
d -t 1.145072 -s 2 -d 5 -p cbr -e 1000 -c 2 -i 32 -a 2 -x {1.0 3.0 32 ------- null}
r -t 1.145168 -s 1 -d 2 -p cbr -e 24 -c 2 -i 33 -a 2 -x {1.0 3.0 33 ------- null}
+ -t 1.145168 -s 2 -d 5 -p cbr -e 24 -c 2 -i 33 -a 2 -x {1.0 3.0 33 ------- null}
d -t 1.145168 -s 2 -d 5 -p cbr -e 24 -c 2 -i 33 -a 2 -x {1.0 3.0 33 ------- null}
r -t 1.14528 -s 2 -d 5 -p cbr -e 1000 -c 2 -i 4 -a 2 -x {1.0 3.0 4 ------- null}
h -t 1.14528 -s 5 -d 8 -p cbr -e 1000 -c 2 -i 4 -a 2 -x {1.0 3.0 4 ------- null}
r -t 1.14592 -s 2 -d 5 -p cbr -e 24 -c 2 -i 5 -a 2 -x {1.0 3.0 5 ------- null}
h -t 1.14592 -s 5 -d 8 -p cbr -e 24 -c 2 -i 5 -a 2 -x {1.0 3.0 5 ------- null}
+ -t 1.147456 -s 1 -d 2 -p cbr -e 1000 -c 2 -i 36 -a 2 -x {1.0 3.0 36 ------- null}
- -t 1.147456 -s 1 -d 2 -p cbr -e 1000 -c 2 -i 36 -a 2 -x {1.0 3.0 36 ------- null}
h -t 1.147456 -s 1 -d 2 -p cbr -e 1000 -c 2 -i 36 -a 2 -x {1.0 3.0 -1 ------- null}
+ -t 1.147456 -s 1 -d 2 -p cbr -e 24 -c 2 -i 37 -a 2 -x {1.0 3.0 37 ------- null}
- -t 1.14989333333333 -s 2 -d 5 -p cbr -e 24 -c 2 -i 9 -a 2 -x {1.0 3.0 9 ------- null}
h -t 1.14989333333333 -s 2 -d 5 -p cbr -e 24 -c 2 -i 9 -a 2 -x {1.0 3.0 -1 ------- null}
- -t 1.15053333333333 -s 2 -d 5 -p cbr -e 1000 -c 2 -i 10 -a 2 -x {1.0 3.0 10 ------- null}
h -t 1.15053333333333 -s 2 -d 5 -p cbr -e 1000 -c 2 -i 10 -a 2 -x {1.0 3.0 -1 ------- null}
- -t 1.151456 -s 1 -d 2 -p cbr -e 24 -c 2 -i 37 -a 2 -x {1.0 3.0 37 ------- null}
h -t 1.151456 -s 1 -d 2 -p cbr -e 24 -c 2 -i 37 -a 2 -x {1.0 3.0 -1 ------- null}
r -t 1.153264 -s 1 -d 2 -p cbr -e 1000 -c 2 -i 34 -a 2 -x {1.0 3.0 34 ------- null}
+ -t 1.153264 -s 2 -d 5 -p cbr -e 1000 -c 2 -i 34 -a 2 -x {1.0 3.0 34 ------- null}
r -t 1.15336 -s 1 -d 2 -p cbr -e 24 -c 2 -i 35 -a 2 -x {1.0 3.0 35 ------- null}
+ -t 1.15336 -s 2 -d 5 -p cbr -e 24 -c 2 -i 35 -a 2 -x {1.0 3.0 35 ------- null}
+ -t 1.155648 -s 1 -d 2 -p cbr -e 1000 -c 2 -i 38 -a 2 -x {1.0 3.0 38 ------- null}
- -t 1.155648 -s 1 -d 2 -p cbr -e 1000 -c 2 -i 38 -a 2 -x {1.0 3.0 38 ------- null}
h -t 1.155648 -s 1 -d 2 -p cbr -e 1000 -c 2 -i 38 -a 2 -x {1.0 3.0 -1 ------- null}
+ -t 1.155648 -s 1 -d 2 -p cbr -e 24 -c 2 -i 39 -a 2 -x {1.0 3.0 39 ------- null}
+ -t 1.15797333333333 -s 5 -d 8 -p cbr -e 1000 -c 2 -i 2 -a 2 -x {1.0 3.0 2 ------- null}
- -t 1.15797333333333 -s 5 -d 8 -p cbr -e 1000 -c 2 -i 2 -a 2 -x {1.0 3.0 2 ------- null}
h -t 1.15797333333333 -s 5 -d 8 -p cbr -e 1000 -c 2 -i 2 -a 2 -x {1.0 3.0 -1 ------- null}
d -t 1.15797733333333 -s 6 -d 8 -p cbr -e 1000 -c 2 -i 2 -a 2 -x {1.0 3.0 2 ------- null}
d -t 1.15797733333333 -s 4 -d 8 -p cbr -e 1000 -c 2 -i 2 -a 2 -x {1.0 3.0 2 ------- null}
+ -t 1.15861333333333 -s 5 -d 8 -p cbr -e 24 -c 2 -i 3 -a 2 -x {1.0 3.0 3 ------- null}
- -t 1.159648 -s 1 -d 2 -p cbr -e 24 -c 2 -i 39 -a 2 -x {1.0 3.0 39 ------- null}
h -t 1.159648 -s 1 -d 2 -p cbr -e 24 -c 2 -i 39 -a 2 -x {1.0 3.0 -1 ------- null}
r -t 1.161456 -s 1 -d 2 -p cbr -e 1000 -c 2 -i 36 -a 2 -x {1.0 3.0 36 ------- null}
+ -t 1.161456 -s 2 -d 5 -p cbr -e 1000 -c 2 -i 36 -a 2 -x {1.0 3.0 36 ------- null}
d -t 1.161456 -s 2 -d 5 -p cbr -e 1000 -c 2 -i 36 -a 2 -x {1.0 3.0 36 ------- null}
r -t 1.161552 -s 1 -d 2 -p cbr -e 24 -c 2 -i 37 -a 2 -x {1.0 3.0 37 ------- null}
+ -t 1.161552 -s 2 -d 5 -p cbr -e 24 -c 2 -i 37 -a 2 -x {1.0 3.0 37 ------- null}
d -t 1.161552 -s 2 -d 5 -p cbr -e 24 -c 2 -i 37 -a 2 -x {1.0 3.0 37 ------- null}
- -t 1.16222933333333 -s 5 -d 8 -p cbr -e 24 -c 2 -i 3 -a 2 -x {1.0 3.0 3 ------- null}
h -t 1.16222933333333 -s 5 -d 8 -p cbr -e 24 -c 2 -i 3 -a 2 -x {1.0 3.0 -1 ------- null}
d -t 1.16223333333333 -s 6 -d 8 -p cbr -e 24 -c 2 -i 3 -a 2 -x {1.0 3.0 3 ------- null}
d -t 1.16223333333333 -s 4 -d 8 -p cbr -e 24 -c 2 -i 3 -a 2 -x {1.0 3.0 3 ------- null}
+ -t 1.16384 -s 1 -d 2 -p cbr -e 1000 -c 2 -i 40 -a 2 -x {1.0 3.0 40 ------- null}
- -t 1.16384 -s 1 -d 2 -p cbr -e 1000 -c 2 -i 40 -a 2 -x {1.0 3.0 40 ------- null}
h -t 1.16384 -s 1 -d 2 -p cbr -e 1000 -c 2 -i 40 -a 2 -x {1.0 3.0 -1 ------- null}
+ -t 1.16384 -s 1 -d 2 -p cbr -e 24 -c 2 -i 41 -a 2 -x {1.0 3.0 41 ------- null}
- -t 1.16784 -s 1 -d 2 -p cbr -e 24 -c 2 -i 41 -a 2 -x {1.0 3.0 41 ------- null}
h -t 1.16784 -s 1 -d 2 -p cbr -e 24 -c 2 -i 41 -a 2 -x {1.0 3.0 -1 ------- null}
r -t 1.169648 -s 1 -d 2 -p cbr -e 1000 -c 2 -i 38 -a 2 -x {1.0 3.0 38 ------- null}
+ -t 1.169648 -s 2 -d 5 -p cbr -e 1000 -c 2 -i 38 -a 2 -x {1.0 3.0 38 ------- null}
d -t 1.169648 -s 2 -d 5 -p cbr -e 1000 -c 2 -i 38 -a 2 -x {1.0 3.0 38 ------- null}
r -t 1.169744 -s 1 -d 2 -p cbr -e 24 -c 2 -i 39 -a 2 -x {1.0 3.0 39 ------- null}
+ -t 1.169744 -s 2 -d 5 -p cbr -e 24 -c 2 -i 39 -a 2 -x {1.0 3.0 39 ------- null}
d -t 1.169744 -s 2 -d 5 -p cbr -e 24 -c 2 -i 39 -a 2 -x {1.0 3.0 39 ------- null}
r -t 1.17067066666667 -s 8 -d 3 -p cbr -e 1000 -c 2 -i 0 -a 2 -x {1.0 3.0 0 ------- null}
+ -t 1.172032 -s 1 -d 2 -p cbr -e 1000 -c 2 -i 42 -a 2 -x {1.0 3.0 42 ------- null}
- -t 1.172032 -s 1 -d 2 -p cbr -e 1000 -c 2 -i 42 -a 2 -x {1.0 3.0 42 ------- null}
h -t 1.172032 -s 1 -d 2 -p cbr -e 1000 -c 2 -i 42 -a 2 -x {1.0 3.0 -1 ------- null}
+ -t 1.172032 -s 1 -d 2 -p cbr -e 24 -c 2 -i 43 -a 2 -x {1.0 3.0 43 ------- null}
r -t 1.17258666666667 -s 2 -d 5 -p cbr -e 1000 -c 2 -i 6 -a 2 -x {1.0 3.0 6 ------- null}
h -t 1.17258666666667 -s 5 -d 8 -p cbr -e 1000 -c 2 -i 6 -a 2 -x {1.0 3.0 6 ------- null}
r -t 1.17322666666667 -s 2 -d 5 -p cbr -e 24 -c 2 -i 7 -a 2 -x {1.0 3.0 7 ------- null}
h -t 1.17322666666667 -s 5 -d 8 -p cbr -e 24 -c 2 -i 7 -a 2 -x {1.0 3.0 7 ------- null}
r -t 1.17492666666667 -s 8 -d 3 -p cbr -e 24 -c 2 -i 1 -a 2 -x {1.0 3.0 1 ------- null}
- -t 1.176032 -s 1 -d 2 -p cbr -e 24 -c 2 -i 43 -a 2 -x {1.0 3.0 43 ------- null}
h -t 1.176032 -s 1 -d 2 -p cbr -e 24 -c 2 -i 43 -a 2 -x {1.0 3.0 -1 ------- null}
- -t 1.1772 -s 2 -d 5 -p cbr -e 24 -c 2 -i 11 -a 2 -x {1.0 3.0 11 ------- null}
h -t 1.1772 -s 2 -d 5 -p cbr -e 24 -c 2 -i 11 -a 2 -x {1.0 3.0 -1 ------- null}
r -t 1.17784 -s 1 -d 2 -p cbr -e 1000 -c 2 -i 40 -a 2 -x {1.0 3.0 40 ------- null}
+ -t 1.17784 -s 2 -d 5 -p cbr -e 1000 -c 2 -i 40 -a 2 -x {1.0 3.0 40 ------- null}
- -t 1.17784 -s 2 -d 5 -p cbr -e 1000 -c 2 -i 12 -a 2 -x {1.0 3.0 12 ------- null}
h -t 1.17784 -s 2 -d 5 -p cbr -e 1000 -c 2 -i 12 -a 2 -x {1.0 3.0 -1 ------- null}
r -t 1.177936 -s 1 -d 2 -p cbr -e 24 -c 2 -i 41 -a 2 -x {1.0 3.0 41 ------- null}
+ -t 1.177936 -s 2 -d 5 -p cbr -e 24 -c 2 -i 41 -a 2 -x {1.0 3.0 41 ------- null}
+ -t 1.180224 -s 1 -d 2 -p cbr -e 1000 -c 2 -i 44 -a 2 -x {1.0 3.0 44 ------- null}
- -t 1.180224 -s 1 -d 2 -p cbr -e 1000 -c 2 -i 44 -a 2 -x {1.0 3.0 44 ------- null}
h -t 1.180224 -s 1 -d 2 -p cbr -e 1000 -c 2 -i 44 -a 2 -x {1.0 3.0 -1 ------- null}
+ -t 1.180224 -s 1 -d 2 -p cbr -e 24 -c 2 -i 45 -a 2 -x {1.0 3.0 45 ------- null}
- -t 1.184224 -s 1 -d 2 -p cbr -e 24 -c 2 -i 45 -a 2 -x {1.0 3.0 45 ------- null}
h -t 1.184224 -s 1 -d 2 -p cbr -e 24 -c 2 -i 45 -a 2 -x {1.0 3.0 -1 ------- null}
+ -t 1.18528 -s 5 -d 8 -p cbr -e 1000 -c 2 -i 4 -a 2 -x {1.0 3.0 4 ------- null}
- -t 1.18528 -s 5 -d 8 -p cbr -e 1000 -c 2 -i 4 -a 2 -x {1.0 3.0 4 ------- null}
h -t 1.18528 -s 5 -d 8 -p cbr -e 1000 -c 2 -i 4 -a 2 -x {1.0 3.0 -1 ------- null}
d -t 1.185284 -s 6 -d 8 -p cbr -e 1000 -c 2 -i 4 -a 2 -x {1.0 3.0 4 ------- null}
d -t 1.185284 -s 4 -d 8 -p cbr -e 1000 -c 2 -i 4 -a 2 -x {1.0 3.0 4 ------- null}
+ -t 1.18592 -s 5 -d 8 -p cbr -e 24 -c 2 -i 5 -a 2 -x {1.0 3.0 5 ------- null}
r -t 1.186032 -s 1 -d 2 -p cbr -e 1000 -c 2 -i 42 -a 2 -x {1.0 3.0 42 ------- null}
+ -t 1.186032 -s 2 -d 5 -p cbr -e 1000 -c 2 -i 42 -a 2 -x {1.0 3.0 42 ------- null}
d -t 1.186032 -s 2 -d 5 -p cbr -e 1000 -c 2 -i 42 -a 2 -x {1.0 3.0 42 ------- null}
r -t 1.186128 -s 1 -d 2 -p cbr -e 24 -c 2 -i 43 -a 2 -x {1.0 3.0 43 ------- null}
+ -t 1.186128 -s 2 -d 5 -p cbr -e 24 -c 2 -i 43 -a 2 -x {1.0 3.0 43 ------- null}
d -t 1.186128 -s 2 -d 5 -p cbr -e 24 -c 2 -i 43 -a 2 -x {1.0 3.0 43 ------- null}
+ -t 1.188416 -s 1 -d 2 -p cbr -e 1000 -c 2 -i 46 -a 2 -x {1.0 3.0 46 ------- null}
- -t 1.188416 -s 1 -d 2 -p cbr -e 1000 -c 2 -i 46 -a 2 -x {1.0 3.0 46 ------- null}
h -t 1.188416 -s 1 -d 2 -p cbr -e 1000 -c 2 -i 46 -a 2 -x {1.0 3.0 -1 ------- null}
+ -t 1.188416 -s 1 -d 2 -p cbr -e 24 -c 2 -i 47 -a 2 -x {1.0 3.0 47 ------- null}
- -t 1.189536 -s 5 -d 8 -p cbr -e 24 -c 2 -i 5 -a 2 -x {1.0 3.0 5 ------- null}
h -t 1.189536 -s 5 -d 8 -p cbr -e 24 -c 2 -i 5 -a 2 -x {1.0 3.0 -1 ------- null}
d -t 1.18954 -s 6 -d 8 -p cbr -e 24 -c 2 -i 5 -a 2 -x {1.0 3.0 5 ------- null}
d -t 1.18954 -s 4 -d 8 -p cbr -e 24 -c 2 -i 5 -a 2 -x {1.0 3.0 5 ------- null}
- -t 1.192416 -s 1 -d 2 -p cbr -e 24 -c 2 -i 47 -a 2 -x {1.0 3.0 47 ------- null}
h -t 1.192416 -s 1 -d 2 -p cbr -e 24 -c 2 -i 47 -a 2 -x {1.0 3.0 -1 ------- null}
r -t 1.194224 -s 1 -d 2 -p cbr -e 1000 -c 2 -i 44 -a 2 -x {1.0 3.0 44 ------- null}
+ -t 1.194224 -s 2 -d 5 -p cbr -e 1000 -c 2 -i 44 -a 2 -x {1.0 3.0 44 ------- null}
d -t 1.194224 -s 2 -d 5 -p cbr -e 1000 -c 2 -i 44 -a 2 -x {1.0 3.0 44 ------- null}
r -t 1.19432 -s 1 -d 2 -p cbr -e 24 -c 2 -i 45 -a 2 -x {1.0 3.0 45 ------- null}
+ -t 1.19432 -s 2 -d 5 -p cbr -e 24 -c 2 -i 45 -a 2 -x {1.0 3.0 45 ------- null}
d -t 1.19432 -s 2 -d 5 -p cbr -e 24 -c 2 -i 45 -a 2 -x {1.0 3.0 45 ------- null}
+ -t 1.196608 -s 1 -d 2 -p cbr -e 1000 -c 2 -i 48 -a 2 -x {1.0 3.0 48 ------- null}
- -t 1.196608 -s 1 -d 2 -p cbr -e 1000 -c 2 -i 48 -a 2 -x {1.0 3.0 48 ------- null}
h -t 1.196608 -s 1 -d 2 -p cbr -e 1000 -c 2 -i 48 -a 2 -x {1.0 3.0 -1 ------- null}
+ -t 1.196608 -s 1 -d 2 -p cbr -e 24 -c 2 -i 49 -a 2 -x {1.0 3.0 49 ------- null}
r -t 1.19797733333333 -s 8 -d 3 -p cbr -e 1000 -c 2 -i 2 -a 2 -x {1.0 3.0 2 ------- null}
r -t 1.19989333333333 -s 2 -d 5 -p cbr -e 1000 -c 2 -i 8 -a 2 -x {1.0 3.0 8 ------- null}
h -t 1.19989333333333 -s 5 -d 8 -p cbr -e 1000 -c 2 -i 8 -a 2 -x {1.0 3.0 8 ------- null}
r -t 1.20053333333333 -s 2 -d 5 -p cbr -e 24 -c 2 -i 9 -a 2 -x {1.0 3.0 9 ------- null}
h -t 1.20053333333333 -s 5 -d 8 -p cbr -e 24 -c 2 -i 9 -a 2 -x {1.0 3.0 9 ------- null}
- -t 1.200608 -s 1 -d 2 -p cbr -e 24 -c 2 -i 49 -a 2 -x {1.0 3.0 49 ------- null}
h -t 1.200608 -s 1 -d 2 -p cbr -e 24 -c 2 -i 49 -a 2 -x {1.0 3.0 -1 ------- null}
r -t 1.20223333333333 -s 8 -d 3 -p cbr -e 24 -c 2 -i 3 -a 2 -x {1.0 3.0 3 ------- null}
r -t 1.202416 -s 1 -d 2 -p cbr -e 1000 -c 2 -i 46 -a 2 -x {1.0 3.0 46 ------- null}
+ -t 1.202416 -s 2 -d 5 -p cbr -e 1000 -c 2 -i 46 -a 2 -x {1.0 3.0 46 ------- null}
d -t 1.202416 -s 2 -d 5 -p cbr -e 1000 -c 2 -i 46 -a 2 -x {1.0 3.0 46 ------- null}
r -t 1.202512 -s 1 -d 2 -p cbr -e 24 -c 2 -i 47 -a 2 -x {1.0 3.0 47 ------- null}
+ -t 1.202512 -s 2 -d 5 -p cbr -e 24 -c 2 -i 47 -a 2 -x {1.0 3.0 47 ------- null}
d -t 1.202512 -s 2 -d 5 -p cbr -e 24 -c 2 -i 47 -a 2 -x {1.0 3.0 47 ------- null}
- -t 1.20450666666667 -s 2 -d 5 -p cbr -e 24 -c 2 -i 13 -a 2 -x {1.0 3.0 13 ------- null}
h -t 1.20450666666667 -s 2 -d 5 -p cbr -e 24 -c 2 -i 13 -a 2 -x {1.0 3.0 -1 ------- null}
+ -t 1.2048 -s 1 -d 2 -p cbr -e 1000 -c 2 -i 50 -a 2 -x {1.0 3.0 50 ------- null}
- -t 1.2048 -s 1 -d 2 -p cbr -e 1000 -c 2 -i 50 -a 2 -x {1.0 3.0 50 ------- null}
h -t 1.2048 -s 1 -d 2 -p cbr -e 1000 -c 2 -i 50 -a 2 -x {1.0 3.0 -1 ------- null}
+ -t 1.2048 -s 1 -d 2 -p cbr -e 24 -c 2 -i 51 -a 2 -x {1.0 3.0 51 ------- null}