+ 1 1 2 cbr 1000 ------- 2 1.0 3.0 0 0
- 1 1 2 cbr 1000 ------- 2 1.0 3.0 0 0
+ 1 1 2 cbr 24 ------- 2 1.0 3.0 1 1
- 1.004 1 2 cbr 24 ------- 2 1.0 3.0 1 1
+ 1.008192 1 2 cbr 1000 ------- 2 1.0 3.0 2 2
- 1.008192 1 2 cbr 1000 ------- 2 1.0 3.0 2 2
+ 1.008192 1 2 cbr 24 ------- 2 1.0 3.0 3 3
- 1.012192 1 2 cbr 24 ------- 2 1.0 3.0 3 3
r 1.014 1 2 cbr 1000 ------- 2 1.0 3.0 0 0
+ 1.014 2 5 cbr 1000 ------- 2 1.0 3.0 0 0
- 1.014 2 5 cbr 1000 ------- 2 1.0 3.0 0 0
r 1.014096 1 2 cbr 24 ------- 2 1.0 3.0 1 1
+ 1.014096 2 5 cbr 24 ------- 2 1.0 3.0 1 1
+ 1.016384 1 2 cbr 1000 ------- 2 1.0 3.0 4 4
- 1.016384 1 2 cbr 1000 ------- 2 1.0 3.0 4 4
+ 1.016384 1 2 cbr 24 ------- 2 1.0 3.0 5 5
- 1.020384 1 2 cbr 24 ------- 2 1.0 3.0 5 5
r 1.022192 1 2 cbr 1000 ------- 2 1.0 3.0 2 2
+ 1.022192 2 5 cbr 1000 ------- 2 1.0 3.0 2 2
r 1.022288 1 2 cbr 24 ------- 2 1.0 3.0 3 3
+ 1.022288 2 5 cbr 24 ------- 2 1.0 3.0 3 3
+ 1.024576 1 2 cbr 1000 ------- 2 1.0 3.0 6 6
- 1.024576 1 2 cbr 1000 ------- 2 1.0 3.0 6 6
+ 1.024576 1 2 cbr 24 ------- 2 1.0 3.0 7 7
- 1.028576 1 2 cbr 24 ------- 2 1.0 3.0 7 7
r 1.030384 1 2 cbr 1000 ------- 2 1.0 3.0 4 4
+ 1.030384 2 5 cbr 1000 ------- 2 1.0 3.0 4 4
r 1.03048 1 2 cbr 24 ------- 2 1.0 3.0 5 5
+ 1.03048 2 5 cbr 24 ------- 2 1.0 3.0 5 5
+ 1.032768 1 2 cbr 1000 ------- 2 1.0 3.0 8 8
- 1.032768 1 2 cbr 1000 ------- 2 1.0 3.0 8 8
+ 1.032768 1 2 cbr 24 ------- 2 1.0 3.0 9 9
- 1.036768 1 2 cbr 24 ------- 2 1.0 3.0 9 9
r 1.038576 1 2 cbr 1000 ------- 2 1.0 3.0 6 6
+ 1.038576 2 5 cbr 1000 ------- 2 1.0 3.0 6 6
r 1.038672 1 2 cbr 24 ------- 2 1.0 3.0 7 7
+ 1.038672 2 5 cbr 24 ------- 2 1.0 3.0 7 7
- 1.040667 2 5 cbr 24 ------- 2 1.0 3.0 1 1
+ 1.04096 1 2 cbr 1000 ------- 2 1.0 3.0 10 10
- 1.04096 1 2 cbr 1000 ------- 2 1.0 3.0 10 10
+ 1.04096 1 2 cbr 24 ------- 2 1.0 3.0 11 11
- 1.041307 2 5 cbr 1000 ------- 2 1.0 3.0 2 2
- 1.04496 1 2 cbr 24 ------- 2 1.0 3.0 11 11
r 1.046768 1 2 cbr 1000 ------- 2 1.0 3.0 8 8
+ 1.046768 2 5 cbr 1000 ------- 2 1.0 3.0 8 8
r 1.046864 1 2 cbr 24 ------- 2 1.0 3.0 9 9
+ 1.046864 2 5 cbr 24 ------- 2 1.0 3.0 9 9
+ 1.049152 1 2 cbr 1000 ------- 2 1.0 3.0 12 12
- 1.049152 1 2 cbr 1000 ------- 2 1.0 3.0 12 12
+ 1.049152 1 2 cbr 24 ------- 2 1.0 3.0 13 13
- 1.053152 1 2 cbr 24 ------- 2 1.0 3.0 13 13
r 1.05496 1 2 cbr 1000 ------- 2 1.0 3.0 10 10
+ 1.05496 2 5 cbr 1000 ------- 2 1.0 3.0 10 10
r 1.055056 1 2 cbr 24 ------- 2 1.0 3.0 11 11
+ 1.055056 2 5 cbr 24 ------- 2 1.0 3.0 11 11
+ 1.057344 1 2 cbr 1000 ------- 2 1.0 3.0 14 14
- 1.057344 1 2 cbr 1000 ------- 2 1.0 3.0 14 14
+ 1.057344 1 2 cbr 24 ------- 2 1.0 3.0 15 15
- 1.061344 1 2 cbr 24 ------- 2 1.0 3.0 15 15
r 1.063152 1 2 cbr 1000 ------- 2 1.0 3.0 12 12
+ 1.063152 2 5 cbr 1000 ------- 2 1.0 3.0 12 12
r 1.063248 1 2 cbr 24 ------- 2 1.0 3.0 13 13
+ 1.063248 2 5 cbr 24 ------- 2 1.0 3.0 13 13
+ 1.065536 1 2 cbr 1000 ------- 2 1.0 3.0 16 16
- 1.065536 1 2 cbr 1000 ------- 2 1.0 3.0 16 16
+ 1.065536 1 2 cbr 24 ------- 2 1.0 3.0 17 17
- 1.067973 2 5 cbr 24 ------- 2 1.0 3.0 3 3
- 1.068613 2 5 cbr 1000 ------- 2 1.0 3.0 4 4
- 1.069536 1 2 cbr 24 ------- 2 1.0 3.0 17 17
r 1.071344 1 2 cbr 1000 ------- 2 1.0 3.0 14 14
+ 1.071344 2 5 cbr 1000 ------- 2 1.0 3.0 14 14
r 1.07144 1 2 cbr 24 ------- 2 1.0 3.0 15 15
+ 1.07144 2 5 cbr 24 ------- 2 1.0 3.0 15 15
+ 1.073728 1 2 cbr 1000 ------- 2 1.0 3.0 18 18
- 1.073728 1 2 cbr 1000 ------- 2 1.0 3.0 18 18
+ 1.073728 1 2 cbr 24 ------- 2 1.0 3.0 19 19
- 1.077728 1 2 cbr 24 ------- 2 1.0 3.0 19 19
r 1.079536 1 2 cbr 1000 ------- 2 1.0 3.0 16 16
+ 1.079536 2 5 cbr 1000 ------- 2 1.0 3.0 16 16
r 1.079632 1 2 cbr 24 ------- 2 1.0 3.0 17 17
+ 1.079632 2 5 cbr 24 ------- 2 1.0 3.0 17 17
+ 1.08192 1 2 cbr 1000 ------- 2 1.0 3.0 20 20
- 1.08192 1 2 cbr 1000 ------- 2 1.0 3.0 20 20
+ 1.08192 1 2 cbr 24 ------- 2 1.0 3.0 21 21
- 1.08592 1 2 cbr 24 ------- 2 1.0 3.0 21 21
r 1.087728 1 2 cbr 1000 ------- 2 1.0 3.0 18 18
+ 1.087728 2 5 cbr 1000 ------- 2 1.0 3.0 18 18
r 1.087824 1 2 cbr 24 ------- 2 1.0 3.0 19 19
+ 1.087824 2 5 cbr 24 ------- 2 1.0 3.0 19 19
+ 1.090112 1 2 cbr 1000 ------- 2 1.0 3.0 22 22
- 1.090112 1 2 cbr 1000 ------- 2 1.0 3.0 22 22
+ 1.090112 1 2 cbr 24 ------- 2 1.0 3.0 23 23
r 1.090667 2 5 cbr 1000 ------- 2 1.0 3.0 0 0
h 1.090667 5 8 cbr 1000 ------- 2 1.0 3.0 0 0
r 1.091307 2 5 cbr 24 ------- 2 1.0 3.0 1 1
h 1.091307 5 8 cbr 24 ------- 2 1.0 3.0 1 1
- 1.094112 1 2 cbr 24 ------- 2 1.0 3.0 23 23
- 1.09528 2 5 cbr 24 ------- 2 1.0 3.0 5 5
r 1.09592 1 2 cbr 1000 ------- 2 1.0 3.0 20 20
+ 1.09592 2 5 cbr 1000 ------- 2 1.0 3.0 20 20
- 1.09592 2 5 cbr 1000 ------- 2 1.0 3.0 6 6
r 1.096016 1 2 cbr 24 ------- 2 1.0 3.0 21 21
+ 1.096016 2 5 cbr 24 ------- 2 1.0 3.0 21 21
+ 1.098304 1 2 cbr 1000 ------- 2 1.0 3.0 24 24
- 1.098304 1 2 cbr 1000 ------- 2 1.0 3.0 24 24
+ 1.098304 1 2 cbr 24 ------- 2 1.0 3.0 25 25
- 1.102304 1 2 cbr 24 ------- 2 1.0 3.0 25 25
r 1.104112 1 2 cbr 1000 ------- 2 1.0 3.0 22 22
+ 1.104112 2 5 cbr 1000 ------- 2 1.0 3.0 22 22
r 1.104208 1 2 cbr 24 ------- 2 1.0 3.0 23 23
+ 1.104208 2 5 cbr 24 ------- 2 1.0 3.0 23 23
+ 1.106496 1 2 cbr 1000 ------- 2 1.0 3.0 26 26
- 1.106496 1 2 cbr 1000 ------- 2 1.0 3.0 26 26
+ 1.106496 1 2 cbr 24 ------- 2 1.0 3.0 27 27
- 1.110496 1 2 cbr 24 ------- 2 1.0 3.0 27 27
r 1.112304 1 2 cbr 1000 ------- 2 1.0 3.0 24 24
+ 1.112304 2 5 cbr 1000 ------- 2 1.0 3.0 24 24
r 1.1124 1 2 cbr 24 ------- 2 1.0 3.0 25 25
+ 1.1124 2 5 cbr 24 ------- 2 1.0 3.0 25 25
+ 1.114688 1 2 cbr 1000 ------- 2 1.0 3.0 28 28
- 1.114688 1 2 cbr 1000 ------- 2 1.0 3.0 28 28
+ 1.114688 1 2 cbr 24 ------- 2 1.0 3.0 29 29
r 1.117973 2 5 cbr 1000 ------- 2 1.0 3.0 2 2
h 1.117973 5 8 cbr 1000 ------- 2 1.0 3.0 2 2
r 1.118613 2 5 cbr 24 ------- 2 1.0 3.0 3 3
h 1.118613 5 8 cbr 24 ------- 2 1.0 3.0 3 3
- 1.118688 1 2 cbr 24 ------- 2 1.0 3.0 29 29
r 1.120496 1 2 cbr 1000 ------- 2 1.0 3.0 26 26
+ 1.120496 2 5 cbr 1000 ------- 2 1.0 3.0 26 26
d 1.120496 2 5 cbr 1000 ------- 2 1.0 3.0 26 26
r 1.120592 1 2 cbr 24 ------- 2 1.0 3.0 27 27
+ 1.120592 2 5 cbr 24 ------- 2 1.0 3.0 27 27
d 1.120592 2 5 cbr 24 ------- 2 1.0 3.0 27 27
- 1.122587 2 5 cbr 24 ------- 2 1.0 3.0 7 7
+ 1.12288 1 2 cbr 1000 ------- 2 1.0 3.0 30 30
- 1.12288 1 2 cbr 1000 ------- 2 1.0 3.0 30 30
+ 1.12288 1 2 cbr 24 ------- 2 1.0 3.0 31 31
- 1.123227 2 5 cbr 1000 ------- 2 1.0 3.0 8 8
- 1.12688 1 2 cbr 24 ------- 2 1.0 3.0 31 31
r 1.128688 1 2 cbr 1000 ------- 2 1.0 3.0 28 28
+ 1.128688 2 5 cbr 1000 ------- 2 1.0 3.0 28 28
r 1.128784 1 2 cbr 24 ------- 2 1.0 3.0 29 29
+ 1.128784 2 5 cbr 24 ------- 2 1.0 3.0 29 29
+ 1.130667 5 8 cbr 1000 ------- 2 1.0 3.0 0 0
- 1.130667 5 8 cbr 1000 ------- 2 1.0 3.0 0 0
d 1.130671 6 8 cbr 1000 ------- 2 1.0 3.0 0 0
d 1.130671 4 8 cbr 1000 ------- 2 1.0 3.0 0 0
+ 1.131072 1 2 cbr 1000 ------- 2 1.0 3.0 32 32
- 1.131072 1 2 cbr 1000 ------- 2 1.0 3.0 32 32
+ 1.131072 1 2 cbr 24 ------- 2 1.0 3.0 33 33
+ 1.131307 5 8 cbr 24 ------- 2 1.0 3.0 1 1
- 1.134923 5 8 cbr 24 ------- 2 1.0 3.0 1 1
d 1.134927 6 8 cbr 24 ------- 2 1.0 3.0 1 1
d 1.134927 4 8 cbr 24 ------- 2 1.0 3.0 1 1
- 1.135072 1 2 cbr 24 ------- 2 1.0 3.0 33 33
r 1.13688 1 2 cbr 1000 ------- 2 1.0 3.0 30 30
+ 1.13688 2 5 cbr 1000 ------- 2 1.0 3.0 30 30
d 1.13688 2 5 cbr 1000 ------- 2 1.0 3.0 30 30
r 1.136976 1 2 cbr 24 ------- 2 1.0 3.0 31 31
+ 1.136976 2 5 cbr 24 ------- 2 1.0 3.0 31 31
d 1.136976 2 5 cbr 24 ------- 2 1.0 3.0 31 31
+ 1.139264 1 2 cbr 1000 ------- 2 1.0 3.0 34 34
- 1.139264 1 2 cbr 1000 ------- 2 1.0 3.0 34 34
+ 1.139264 1 2 cbr 24 ------- 2 1.0 3.0 35 35
- 1.143264 1 2 cbr 24 ------- 2 1.0 3.0 35 35
r 1.145072 1 2 cbr 1000 ------- 2 1.0 3.0 32 32
+ 1.145072 2 5 cbr 1000 ------- 2 1.0 3.0 32 32
d 1.145072 2 5 cbr 1000 ------- 2 1.0 3.0 32 32
r 1.145168 1 2 cbr 24 ------- 2 1.0 3.0 33 33
+ 1.145168 2 5 cbr 24 ------- 2 1.0 3.0 33 33
d 1.145168 2 5 cbr 24 ------- 2 1.0 3.0 33 33
r 1.14528 2 5 cbr 1000 ------- 2 1.0 3.0 4 4
h 1.14528 5 8 cbr 1000 ------- 2 1.0 3.0 4 4
r 1.14592 2 5 cbr 24 ------- 2 1.0 3.0 5 5
h 1.14592 5 8 cbr 24 ------- 2 1.0 3.0 5 5
+ 1.147456 1 2 cbr 1000 ------- 2 1.0 3.0 36 36
- 1.147456 1 2 cbr 1000 ------- 2 1.0 3.0 36 36
+ 1.147456 1 2 cbr 24 ------- 2 1.0 3.0 37 37
- 1.149893 2 5 cbr 24 ------- 2 1.0 3.0 9 9
- 1.150533 2 5 cbr 1000 ------- 2 1.0 3.0 10 10
- 1.151456 1 2 cbr 24 ------- 2 1.0 3.0 37 37
r 1.153264 1 2 cbr 1000 ------- 2 1.0 3.0 34 34
+ 1.153264 2 5 cbr 1000 ------- 2 1.0 3.0 34 34
r 1.15336 1 2 cbr 24 ------- 2 1.0 3.0 35 35
+ 1.15336 2 5 cbr 24 ------- 2 1.0 3.0 35 35
+ 1.155648 1 2 cbr 1000 ------- 2 1.0 3.0 38 38
- 1.155648 1 2 cbr 1000 ------- 2 1.0 3.0 38 38
+ 1.155648 1 2 cbr 24 ------- 2 1.0 3.0 39 39
+ 1.157973 5 8 cbr 1000 ------- 2 1.0 3.0 2 2
- 1.157973 5 8 cbr 1000 ------- 2 1.0 3.0 2 2
d 1.157977 6 8 cbr 1000 ------- 2 1.0 3.0 2 2
d 1.157977 4 8 cbr 1000 ------- 2 1.0 3.0 2 2
+ 1.158613 5 8 cbr 24 ------- 2 1.0 3.0 3 3
- 1.159648 1 2 cbr 24 ------- 2 1.0 3.0 39 39
r 1.161456 1 2 cbr 1000 ------- 2 1.0 3.0 36 36
+ 1.161456 2 5 cbr 1000 ------- 2 1.0 3.0 36 36
d 1.161456 2 5 cbr 1000 ------- 2 1.0 3.0 36 36
r 1.161552 1 2 cbr 24 ------- 2 1.0 3.0 37 37
+ 1.161552 2 5 cbr 24 ------- 2 1.0 3.0 37 37
d 1.161552 2 5 cbr 24 ------- 2 1.0 3.0 37 37
- 1.162229 5 8 cbr 24 ------- 2 1.0 3.0 3 3
d 1.162233 6 8 cbr 24 ------- 2 1.0 3.0 3 3
d 1.162233 4 8 cbr 24 ------- 2 1.0 3.0 3 3
+ 1.16384 1 2 cbr 1000 ------- 2 1.0 3.0 40 40
- 1.16384 1 2 cbr 1000 ------- 2 1.0 3.0 40 40
+ 1.16384 1 2 cbr 24 ------- 2 1.0 3.0 41 41
- 1.16784 1 2 cbr 24 ------- 2 1.0 3.0 41 41
r 1.169648 1 2 cbr 1000 ------- 2 1.0 3.0 38 38
+ 1.169648 2 5 cbr 1000 ------- 2 1.0 3.0 38 38
d 1.169648 2 5 cbr 1000 ------- 2 1.0 3.0 38 38
r 1.169744 1 2 cbr 24 ------- 2 1.0 3.0 39 39
+ 1.169744 2 5 cbr 24 ------- 2 1.0 3.0 39 39
d 1.169744 2 5 cbr 24 ------- 2 1.0 3.0 39 39
r 1.170671 8 3 cbr 1000 ------- 2 1.0 3.0 0 0
+ 1.172032 1 2 cbr 1000 ------- 2 1.0 3.0 42 42
- 1.172032 1 2 cbr 1000 ------- 2 1.0 3.0 42 42
+ 1.172032 1 2 cbr 24 ------- 2 1.0 3.0 43 43
r 1.172587 2 5 cbr 1000 ------- 2 1.0 3.0 6 6
h 1.172587 5 8 cbr 1000 ------- 2 1.0 3.0 6 6
r 1.173227 2 5 cbr 24 ------- 2 1.0 3.0 7 7
h 1.173227 5 8 cbr 24 ------- 2 1.0 3.0 7 7
r 1.174927 8 3 cbr 24 ------- 2 1.0 3.0 1 1
- 1.176032 1 2 cbr 24 ------- 2 1.0 3.0 43 43
- 1.1772 2 5 cbr 24 ------- 2 1.0 3.0 11 11
r 1.17784 1 2 cbr 1000 ------- 2 1.0 3.0 40 40
+ 1.17784 2 5 cbr 1000 ------- 2 1.0 3.0 40 40
- 1.17784 2 5 cbr 1000 ------- 2 1.0 3.0 12 12
r 1.177936 1 2 cbr 24 ------- 2 1.0 3.0 41 41
+ 1.177936 2 5 cbr 24 ------- 2 1.0 3.0 41 41
+ 1.180224 1 2 cbr 1000 ------- 2 1.0 3.0 44 44
- 1.180224 1 2 cbr 1000 ------- 2 1.0 3.0 44 44
+ 1.180224 1 2 cbr 24 ------- 2 1.0 3.0 45 45
- 1.184224 1 2 cbr 24 ------- 2 1.0 3.0 45 45
+ 1.18528 5 8 cbr 1000 ------- 2 1.0 3.0 4 4
- 1.18528 5 8 cbr 1000 ------- 2 1.0 3.0 4 4
d 1.185284 6 8 cbr 1000 ------- 2 1.0 3.0 4 4
d 1.185284 4 8 cbr 1000 ------- 2 1.0 3.0 4 4
+ 1.18592 5 8 cbr 24 ------- 2 1.0 3.0 5 5
r 1.186032 1 2 cbr 1000 ------- 2 1.0 3.0 42 42
+ 1.186032 2 5 cbr 1000 ------- 2 1.0 3.0 42 42
d 1.186032 2 5 cbr 1000 ------- 2 1.0 3.0 42 42
r 1.186128 1 2 cbr 24 ------- 2 1.0 3.0 43 43
+ 1.186128 2 5 cbr 24 ------- 2 1.0 3.0 43 43
d 1.186128 2 5 cbr 24 ------- 2 1.0 3.0 43 43
+ 1.188416 1 2 cbr 1000 ------- 2 1.0 3.0 46 46
- 1.188416 1 2 cbr 1000 ------- 2 1.0 3.0 46 46
+ 1.188416 1 2 cbr 24 ------- 2 1.0 3.0 47 47
- 1.189536 5 8 cbr 24 ------- 2 1.0 3.0 5 5
d 1.18954 6 8 cbr 24 ------- 2 1.0 3.0 5 5
d 1.18954 4 8 cbr 24 ------- 2 1.0 3.0 5 5
- 1.192416 1 2 cbr 24 ------- 2 1.0 3.0 47 47
r 1.194224 1 2 cbr 1000 ------- 2 1.0 3.0 44 44
+ 1.194224 2 5 cbr 1000 ------- 2 1.0 3.0 44 44
d 1.194224 2 5 cbr 1000 ------- 2 1.0 3.0 44 44
r 1.19432 1 2 cbr 24 ------- 2 1.0 3.0 45 45
+ 1.19432 2 5 cbr 24 ------- 2 1.0 3.0 45 45
d 1.19432 2 5 cbr 24 ------- 2 1.0 3.0 45 45
+ 1.196608 1 2 cbr 1000 ------- 2 1.0 3.0 48 48
- 1.196608 1 2 cbr 1000 ------- 2 1.0 3.0 48 48
+ 1.196608 1 2 cbr 24 ------- 2 1.0 3.0 49 49
r 1.197977 8 3 cbr 1000 ------- 2 1.0 3.0 2 2
r 1.199893 2 5 cbr 1000 ------- 2 1.0 3.0 8 8
h 1.199893 5 8 cbr 1000 ------- 2 1.0 3.0 8 8
r 1.200533 2 5 cbr 24 ------- 2 1.0 3.0 9 9
h 1.200533 5 8 cbr 24 ------- 2 1.0 3.0 9 9
- 1.200608 1 2 cbr 24 ------- 2 1.0 3.0 49 49
r 1.202233 8 3 cbr 24 ------- 2 1.0 3.0 3 3
r 1.202416 1 2 cbr 1000 ------- 2 1.0 3.0 46 46
+ 1.202416 2 5 cbr 1000 ------- 2 1.0 3.0 46 46
d 1.202416 2 5 cbr 1000 ------- 2 1.0 3.0 46 46
r 1.202512 1 2 cbr 24 ------- 2 1.0 3.0 47 47
+ 1.202512 2 5 cbr 24 ------- 2 1.0 3.0 47 47
d 1.202512 2 5 cbr 24 ------- 2 1.0 3.0 47 47
- 1.204507 2 5 cbr 24 ------- 2 1.0 3.0 13 13
+ 1.2048 1 2 cbr 1000 ------- 2 1.0 3.0 50 50
- 1.2048 1 2 cbr 1000 ------- 2 1.0 3.0 50 50
+ 1.2048 1 2 cbr 24 ------- 2 1.0 3.0 51 51
- 1.205147 2 5 cbr 1000 ------- 2 1.0 3.0 14 14
- 1.2088 1 2 cbr 24 ------- 2 1.0 3.0 51 51
r 1.210608 1 2 cbr 1000 ------- 2 1.0 3.0 48 48
+ 1.210608 2 5 cbr 1000 ------- 2 1.0 3.0 48 48
r 1.210704 1 2 cbr 24 ------- 2 1.0 3.0 49 49
+ 1.210704 2 5 cbr 24 ------- 2 1.0 3.0 49 49
+ 1.212587 5 8 cbr 1000 ------- 2 1.0 3.0 6 6
- 1.212587 5 8 cbr 1000 ------- 2 1.0 3.0 6 6
d 1.212591 6 8 cbr 1000 ------- 2 1.0 3.0 6 6
d 1.212591 4 8 cbr 1000 ------- 2 1.0 3.0 6 6
+ 1.212992 1 2 cbr 1000 ------- 2 1.0 3.0 52 52
- 1.212992 1 2 cbr 1000 ------- 2 1.0 3.0 52 52
+ 1.212992 1 2 cbr 24 ------- 2 1.0 3.0 53 53
+ 1.213227 5 8 cbr 24 ------- 2 1.0 3.0 7 7
- 1.216843 5 8 cbr 24 ------- 2 1.0 3.0 7 7
d 1.216847 6 8 cbr 24 ------- 2 1.0 3.0 7 7
d 1.216847 4 8 cbr 24 ------- 2 1.0 3.0 7 7
- 1.216992 1 2 cbr 24 ------- 2 1.0 3.0 53 53
r 1.2188 1 2 cbr 1000 ------- 2 1.0 3.0 50 50
+ 1.2188 2 5 cbr 1000 ------- 2 1.0 3.0 50 50
d 1.2188 2 5 cbr 1000 ------- 2 1.0 3.0 50 50
r 1.218896 1 2 cbr 24 ------- 2 1.0 3.0 51 51
+ 1.218896 2 5 cbr 24 ------- 2 1.0 3.0 51 51
d 1.218896 2 5 cbr 24 ------- 2 1.0 3.0 51 51
+ 1.221184 1 2 cbr 1000 ------- 2 1.0 3.0 54 54
- 1.221184 1 2 cbr 1000 ------- 2 1.0 3.0 54 54
+ 1.221184 1 2 cbr 24 ------- 2 1.0 3.0 55 55
- 1.225184 1 2 cbr 24 ------- 2 1.0 3.0 55 55
r 1.225284 8 3 cbr 1000 ------- 2 1.0 3.0 4 4
r 1.226992 1 2 cbr 1000 ------- 2 1.0 3.0 52 52
+ 1.226992 2 5 cbr 1000 ------- 2 1.0 3.0 52 52
d 1.226992 2 5 cbr 1000 ------- 2 1.0 3.0 52 52
r 1.227088 1 2 cbr 24 ------- 2 1.0 3.0 53 53
+ 1.227088 2 5 cbr 24 ------- 2 1.0 3.0 53 53
d 1.227088 2 5 cbr 24 ------- 2 1.0 3.0 53 53
r 1.2272 2 5 cbr 1000 ------- 2 1.0 3.0 10 10
h 1.2272 5 8 cbr 1000 ------- 2 1.0 3.0 10 10
r 1.22784 2 5 cbr 24 ------- 2 1.0 3.0 11 11
h 1.22784 5 8 cbr 24 ------- 2 1.0 3.0 11 11
+ 1.229376 1 2 cbr 1000 ------- 2 1.0 3.0 56 56
- 1.229376 1 2 cbr 1000 ------- 2 1.0 3.0 56 56
+ 1.229376 1 2 cbr 24 ------- 2 1.0 3.0 57 57
r 1.22954 8 3 cbr 24 ------- 2 1.0 3.0 5 5
- 1.231813 2 5 cbr 24 ------- 2 1.0 3.0 15 15
- 1.232453 2 5 cbr 1000 ------- 2 1.0 3.0 16 16
- 1.233376 1 2 cbr 24 ------- 2 1.0 3.0 57 57
r 1.235184 1 2 cbr 1000 ------- 2 1.0 3.0 54 54
+ 1.235184 2 5 cbr 1000 ------- 2 1.0 3.0 54 54
r 1.23528 1 2 cbr 24 ------- 2 1.0 3.0 55 55
+ 1.23528 2 5 cbr 24 ------- 2 1.0 3.0 55 55
+ 1.237568 1 2 cbr 1000 ------- 2 1.0 3.0 58 58
- 1.237568 1 2 cbr 1000 ------- 2 1.0 3.0 58 58
+ 1.237568 1 2 cbr 24 ------- 2 1.0 3.0 59 59
+ 1.239893 5 8 cbr 1000 ------- 2 1.0 3.0 8 8
- 1.239893 5 8 cbr 1000 ------- 2 1.0 3.0 8 8
d 1.239897 6 8 cbr 1000 ------- 2 1.0 3.0 8 8
d 1.239897 4 8 cbr 1000 ------- 2 1.0 3.0 8 8
+ 1.240533 5 8 cbr 24 ------- 2 1.0 3.0 9 9
- 1.241568 1 2 cbr 24 ------- 2 1.0 3.0 59 59
r 1.243376 1 2 cbr 1000 ------- 2 1.0 3.0 56 56
+ 1.243376 2 5 cbr 1000 ------- 2 1.0 3.0 56 56
d 1.243376 2 5 cbr 1000 ------- 2 1.0 3.0 56 56
r 1.243472 1 2 cbr 24 ------- 2 1.0 3.0 57 57
+ 1.243472 2 5 cbr 24 ------- 2 1.0 3.0 57 57
d 1.243472 2 5 cbr 24 ------- 2 1.0 3.0 57 57
- 1.244149 5 8 cbr 24 ------- 2 1.0 3.0 9 9
d 1.244153 6 8 cbr 24 ------- 2 1.0 3.0 9 9
d 1.244153 4 8 cbr 24 ------- 2 1.0 3.0 9 9
+ 1.24576 1 2 cbr 1000 ------- 2 1.0 3.0 60 60
- 1.24576 1 2 cbr 1000 ------- 2 1.0 3.0 60 60
+ 1.24576 1 2 cbr 24 ------- 2 1.0 3.0 61 61
- 1.24976 1 2 cbr 24 ------- 2 1.0 3.0 61 61
r 1.251568 1 2 cbr 1000 ------- 2 1.0 3.0 58 58
+ 1.251568 2 5 cbr 1000 ------- 2 1.0 3.0 58 58
d 1.251568 2 5 cbr 1000 ------- 2 1.0 3.0 58 58
r 1.251664 1 2 cbr 24 ------- 2 1.0 3.0 59 59
+ 1.251664 2 5 cbr 24 ------- 2 1.0 3.0 59 59
d 1.251664 2 5 cbr 24 ------- 2 1.0 3.0 59 59
r 1.252591 8 3 cbr 1000 ------- 2 1.0 3.0 6 6
+ 1.253952 1 2 cbr 1000 ------- 2 1.0 3.0 62 62
- 1.253952 1 2 cbr 1000 ------- 2 1.0 3.0 62 62
+ 1.253952 1 2 cbr 24 ------- 2 1.0 3.0 63 63
r 1.254507 2 5 cbr 1000 ------- 2 1.0 3.0 12 12
h 1.254507 5 8 cbr 1000 ------- 2 1.0 3.0 12 12
r 1.255147 2 5 cbr 24 ------- 2 1.0 3.0 13 13
h 1.255147 5 8 cbr 24 ------- 2 1.0 3.0 13 13
r 1.256847 8 3 cbr 24 ------- 2 1.0 3.0 7 7
- 1.257952 1 2 cbr 24 ------- 2 1.0 3.0 63 63
- 1.25912 2 5 cbr 24 ------- 2 1.0 3.0 17 17
r 1.25976 1 2 cbr 1000 ------- 2 1.0 3.0 60 60
+ 1.25976 2 5 cbr 1000 ------- 2 1.0 3.0 60 60
- 1.25976 2 5 cbr 1000 ------- 2 1.0 3.0 18 18
r 1.259856 1 2 cbr 24 ------- 2 1.0 3.0 61 61
+ 1.259856 2 5 cbr 24 ------- 2 1.0 3.0 61 61
+ 1.262144 1 2 cbr 1000 ------- 2 1.0 3.0 64 64
- 1.262144 1 2 cbr 1000 ------- 2 1.0 3.0 64 64
+ 1.262144 1 2 cbr 24 ------- 2 1.0 3.0 65 65
- 1.266144 1 2 cbr 24 ------- 2 1.0 3.0 65 65
+ 1.2672 5 8 cbr 1000 ------- 2 1.0 3.0 10 10
- 1.2672 5 8 cbr 1000 ------- 2 1.0 3.0 10 10
d 1.267204 6 8 cbr 1000 ------- 2 1.0 3.0 10 10
d 1.267204 4 8 cbr 1000 ------- 2 1.0 3.0 10 10
+ 1.26784 5 8 cbr 24 ------- 2 1.0 3.0 11 11
r 1.267952 1 2 cbr 1000 ------- 2 1.0 3.0 62 62
+ 1.267952 2 5 cbr 1000 ------- 2 1.0 3.0 62 62
d 1.267952 2 5 cbr 1000 ------- 2 1.0 3.0 62 62
r 1.268048 1 2 cbr 24 ------- 2 1.0 3.0 63 63
+ 1.268048 2 5 cbr 24 ------- 2 1.0 3.0 63 63
d 1.268048 2 5 cbr 24 ------- 2 1.0 3.0 63 63
+ 1.270336 1 2 cbr 1000 ------- 2 1.0 3.0 66 66
- 1.270336 1 2 cbr 1000 ------- 2 1.0 3.0 66 66
+ 1.270336 1 2 cbr 24 ------- 2 1.0 3.0 67 67
- 1.271456 5 8 cbr 24 ------- 2 1.0 3.0 11 11
d 1.27146 6 8 cbr 24 ------- 2 1.0 3.0 11 11
d 1.27146 4 8 cbr 24 ------- 2 1.0 3.0 11 11
- 1.274336 1 2 cbr 24 ------- 2 1.0 3.0 67 67
r 1.276144 1 2 cbr 1000 ------- 2 1.0 3.0 64 64
+ 1.276144 2 5 cbr 1000 ------- 2 1.0 3.0 64 64
d 1.276144 2 5 cbr 1000 ------- 2 1.0 3.0 64 64
r 1.27624 1 2 cbr 24 ------- 2 1.0 3.0 65 65
+ 1.27624 2 5 cbr 24 ------- 2 1.0 3.0 65 65
d 1.27624 2 5 cbr 24 ------- 2 1.0 3.0 65 65
+ 1.278528 1 2 cbr 1000 ------- 2 1.0 3.0 68 68
- 1.278528 1 2 cbr 1000 ------- 2 1.0 3.0 68 68
+ 1.278528 1 2 cbr 24 ------- 2 1.0 3.0 69 69
r 1.279897 8 3 cbr 1000 ------- 2 1.0 3.0 8 8
r 1.281813 2 5 cbr 1000 ------- 2 1.0 3.0 14 14
h 1.281813 5 8 cbr 1000 ------- 2 1.0 3.0 14 14
r 1.282453 2 5 cbr 24 ------- 2 1.0 3.0 15 15
h 1.282453 5 8 cbr 24 ------- 2 1.0 3.0 15 15
- 1.282528 1 2 cbr 24 ------- 2 1.0 3.0 69 69
r 1.284153 8 3 cbr 24 ------- 2 1.0 3.0 9 9
r 1.284336 1 2 cbr 1000 ------- 2 1.0 3.0 66 66
+ 1.284336 2 5 cbr 1000 ------- 2 1.0 3.0 66 66
d 1.284336 2 5 cbr 1000 ------- 2 1.0 3.0 66 66
r 1.284432 1 2 cbr 24 ------- 2 1.0 3.0 67 67
+ 1.284432 2 5 cbr 24 ------- 2 1.0 3.0 67 67
d 1.284432 2 5 cbr 24 ------- 2 1.0 3.0 67 67
- 1.286427 2 5 cbr 24 ------- 2 1.0 3.0 19 19
+ 1.28672 1 2 cbr 1000 ------- 2 1.0 3.0 70 70
- 1.28672 1 2 cbr 1000 ------- 2 1.0 3.0 70 70
+ 1.28672 1 2 cbr 24 ------- 2 1.0 3.0 71 71
- 1.287067 2 5 cbr 1000 ------- 2 1.0 3.0 20 20
- 1.29072 1 2 cbr 24 ------- 2 1.0 3.0 71 71
r 1.292528 1 2 cbr 1000 ------- 2 1.0 3.0 68 68
+ 1.292528 2 5 cbr 1000 ------- 2 1.0 3.0 68 68
r 1.292624 1 2 cbr 24 ------- 2 1.0 3.0 69 69
+ 1.292624 2 5 cbr 24 ------- 2 1.0 3.0 69 69
+ 1.294507 5 8 cbr 1000 ------- 2 1.0 3.0 12 12
- 1.294507 5 8 cbr 1000 ------- 2 1.0 3.0 12 12
d 1.294511 6 8 cbr 1000 ------- 2 1.0 3.0 12 12
d 1.294511 4 8 cbr 1000 ------- 2 1.0 3.0 12 12
+ 1.294912 1 2 cbr 1000 ------- 2 1.0 3.0 72 72
- 1.294912 1 2 cbr 1000 ------- 2 1.0 3.0 72 72
+ 1.294912 1 2 cbr 24 ------- 2 1.0 3.0 73 73
+ 1.295147 5 8 cbr 24 ------- 2 1.0 3.0 13 13
- 1.298763 5 8 cbr 24 ------- 2 1.0 3.0 13 13
d 1.298767 6 8 cbr 24 ------- 2 1.0 3.0 13 13
d 1.298767 4 8 cbr 24 ------- 2 1.0 3.0 13 13
- 1.298912 1 2 cbr 24 ------- 2 1.0 3.0 73 73
r 1.30072 1 2 cbr 1000 ------- 2 1.0 3.0 70 70
+ 1.30072 2 5 cbr 1000 ------- 2 1.0 3.0 70 70
d 1.30072 2 5 cbr 1000 ------- 2 1.0 3.0 70 70
r 1.300816 1 2 cbr 24 ------- 2 1.0 3.0 71 71
+ 1.300816 2 5 cbr 24 ------- 2 1.0 3.0 71 71
d 1.300816 2 5 cbr 24 ------- 2 1.0 3.0 71 71
+ 1.303104 1 2 cbr 1000 ------- 2 1.0 3.0 74 74
- 1.303104 1 2 cbr 1000 ------- 2 1.0 3.0 74 74
+ 1.303104 1 2 cbr 24 ------- 2 1.0 3.0 75 75
- 1.307104 1 2 cbr 24 ------- 2 1.0 3.0 75 75
r 1.307204 8 3 cbr 1000 ------- 2 1.0 3.0 10 10
r 1.308912 1 2 cbr 1000 ------- 2 1.0 3.0 72 72
+ 1.308912 2 5 cbr 1000 ------- 2 1.0 3.0 72 72
d 1.308912 2 5 cbr 1000 ------- 2 1.0 3.0 72 72
r 1.309008 1 2 cbr 24 ------- 2 1.0 3.0 73 73
+ 1.309008 2 5 cbr 24 ------- 2 1.0 3.0 73 73
d 1.309008 2 5 cbr 24 ------- 2 1.0 3.0 73 73
r 1.30912 2 5 cbr 1000 ------- 2 1.0 3.0 16 16
h 1.30912 5 8 cbr 1000 ------- 2 1.0 3.0 16 16
r 1.30976 2 5 cbr 24 ------- 2 1.0 3.0 17 17
h 1.30976 5 8 cbr 24 ------- 2 1.0 3.0 17 17
+ 1.311296 1 2 cbr 1000 ------- 2 1.0 3.0 76 76
- 1.311296 1 2 cbr 1000 ------- 2 1.0 3.0 76 76
+ 1.311296 1 2 cbr 24 ------- 2 1.0 3.0 77 77
r 1.31146 8 3 cbr 24 ------- 2 1.0 3.0 11 11
- 1.313733 2 5 cbr 24 ------- 2 1.0 3.0 21 21
- 1.314373 2 5 cbr 1000 ------- 2 1.0 3.0 22 22
- 1.315296 1 2 cbr 24 ------- 2 1.0 3.0 77 77
r 1.317104 1 2 cbr 1000 ------- 2 1.0 3.0 74 74
+ 1.317104 2 5 cbr 1000 ------- 2 1.0 3.0 74 74
r 1.3172 1 2 cbr 24 ------- 2 1.0 3.0 75 75
+ 1.3172 2 5 cbr 24 ------- 2 1.0 3.0 75 75
+ 1.319488 1 2 cbr 1000 ------- 2 1.0 3.0 78 78
- 1.319488 1 2 cbr 1000 ------- 2 1.0 3.0 78 78
+ 1.319488 1 2 cbr 24 ------- 2 1.0 3.0 79 79
+ 1.321813 5 8 cbr 1000 ------- 2 1.0 3.0 14 14
- 1.321813 5 8 cbr 1000 ------- 2 1.0 3.0 14 14
d 1.321817 6 8 cbr 1000 ------- 2 1.0 3.0 14 14
d 1.321817 4 8 cbr 1000 ------- 2 1.0 3.0 14 14
+ 1.322453 5 8 cbr 24 ------- 2 1.0 3.0 15 15
- 1.323488 1 2 cbr 24 ------- 2 1.0 3.0 79 79
r 1.325296 1 2 cbr 1000 ------- 2 1.0 3.0 76 76
+ 1.325296 2 5 cbr 1000 ------- 2 1.0 3.0 76 76
d 1.325296 2 5 cbr 1000 ------- 2 1.0 3.0 76 76
r 1.325392 1 2 cbr 24 ------- 2 1.0 3.0 77 77
+ 1.325392 2 5 cbr 24 ------- 2 1.0 3.0 77 77
d 1.325392 2 5 cbr 24 ------- 2 1.0 3.0 77 77
- 1.326069 5 8 cbr 24 ------- 2 1.0 3.0 15 15
d 1.326073 6 8 cbr 24 ------- 2 1.0 3.0 15 15
d 1.326073 4 8 cbr 24 ------- 2 1.0 3.0 15 15
+ 1.32768 1 2 cbr 1000 ------- 2 1.0 3.0 80 80
- 1.32768 1 2 cbr 1000 ------- 2 1.0 3.0 80 80
+ 1.32768 1 2 cbr 24 ------- 2 1.0 3.0 81 81
- 1.33168 1 2 cbr 24 ------- 2 1.0 3.0 81 81
r 1.333488 1 2 cbr 1000 ------- 2 1.0 3.0 78 78
+ 1.333488 2 5 cbr 1000 ------- 2 1.0 3.0 78 78
d 1.333488 2 5 cbr 1000 ------- 2 1.0 3.0 78 78
r 1.333584 1 2 cbr 24 ------- 2 1.0 3.0 79 79
+ 1.333584 2 5 cbr 24 ------- 2 1.0 3.0 79 79
d 1.333584 2 5 cbr 24 ------- 2 1.0 3.0 79 79
r 1.334511 8 3 cbr 1000 ------- 2 1.0 3.0 12 12
+ 1.335872 1 2 cbr 1000 ------- 2 1.0 3.0 82 82
- 1.335872 1 2 cbr 1000 ------- 2 1.0 3.0 82 82
+ 1.335872 1 2 cbr 24 ------- 2 1.0 3.0 83 83
r 1.336427 2 5 cbr 1000 ------- 2 1.0 3.0 18 18
h 1.336427 5 8 cbr 1000 ------- 2 1.0 3.0 18 18
r 1.337067 2 5 cbr 24 ------- 2 1.0 3.0 19 19
h 1.337067 5 8 cbr 24 ------- 2 1.0 3.0 19 19
r 1.338767 8 3 cbr 24 ------- 2 1.0 3.0 13 13
- 1.339872 1 2 cbr 24 ------- 2 1.0 3.0 83 83
- 1.34104 2 5 cbr 24 ------- 2 1.0 3.0 23 23
r 1.34168 1 2 cbr 1000 ------- 2 1.0 3.0 80 80
+ 1.34168 2 5 cbr 1000 ------- 2 1.0 3.0 80 80
- 1.34168 2 5 cbr 1000 ------- 2 1.0 3.0 24 24
r 1.341776 1 2 cbr 24 ------- 2 1.0 3.0 81 81
+ 1.341776 2 5 cbr 24 ------- 2 1.0 3.0 81 81
+ 1.344064 1 2 cbr 1000 ------- 2 1.0 3.0 84 84
- 1.344064 1 2 cbr 1000 ------- 2 1.0 3.0 84 84
+ 1.344064 1 2 cbr 24 ------- 2 1.0 3.0 85 85
- 1.348064 1 2 cbr 24 ------- 2 1.0 3.0 85 85
+ 1.34912 5 8 cbr 1000 ------- 2 1.0 3.0 16 16
- 1.34912 5 8 cbr 1000 ------- 2 1.0 3.0 16 16
d 1.349124 6 8 cbr 1000 ------- 2 1.0 3.0 16 16
d 1.349124 4 8 cbr 1000 ------- 2 1.0 3.0 16 16
+ 1.34976 5 8 cbr 24 ------- 2 1.0 3.0 17 17
r 1.349872 1 2 cbr 1000 ------- 2 1.0 3.0 82 82
+ 1.349872 2 5 cbr 1000 ------- 2 1.0 3.0 82 82
d 1.349872 2 5 cbr 1000 ------- 2 1.0 3.0 82 82
r 1.349968 1 2 cbr 24 ------- 2 1.0 3.0 83 83
+ 1.349968 2 5 cbr 24 ------- 2 1.0 3.0 83 83
d 1.349968 2 5 cbr 24 ------- 2 1.0 3.0 83 83
+ 1.352256 1 2 cbr 1000 ------- 2 1.0 3.0 86 86
- 1.352256 1 2 cbr 1000 ------- 2 1.0 3.0 86 86
+ 1.352256 1 2 cbr 24 ------- 2 1.0 3.0 87 87
- 1.353376 5 8 cbr 24 ------- 2 1.0 3.0 17 17
d 1.35338 6 8 cbr 24 ------- 2 1.0 3.0 17 17
d 1.35338 4 8 cbr 24 ------- 2 1.0 3.0 17 17
- 1.356256 1 2 cbr 24 ------- 2 1.0 3.0 87 87
r 1.358064 1 2 cbr 1000 ------- 2 1.0 3.0 84 84
+ 1.358064 2 5 cbr 1000 ------- 2 1.0 3.0 84 84
d 1.358064 2 5 cbr 1000 ------- 2 1.0 3.0 84 84
r 1.35816 1 2 cbr 24 ------- 2 1.0 3.0 85 85
+ 1.35816 2 5 cbr 24 ------- 2 1.0 3.0 85 85
d 1.35816 2 5 cbr 24 ------- 2 1.0 3.0 85 85
+ 1.360448 1 2 cbr 1000 ------- 2 1.0 3.0 88 88
- 1.360448 1 2 cbr 1000 ------- 2 1.0 3.0 88 88
+ 1.360448 1 2 cbr 24 ------- 2 1.0 3.0 89 89
r 1.361817 8 3 cbr 1000 ------- 2 1.0 3.0 14 14
r 1.363733 2 5 cbr 1000 ------- 2 1.0 3.0 20 20
h 1.363733 5 8 cbr 1000 ------- 2 1.0 3.0 20 20
r 1.364373 2 5 cbr 24 ------- 2 1.0 3.0 21 21
h 1.364373 5 8 cbr 24 ------- 2 1.0 3.0 21 21
- 1.364448 1 2 cbr 24 ------- 2 1.0 3.0 89 89
r 1.366073 8 3 cbr 24 ------- 2 1.0 3.0 15 15
r 1.366256 1 2 cbr 1000 ------- 2 1.0 3.0 86 86
+ 1.366256 2 5 cbr 1000 ------- 2 1.0 3.0 86 86
d 1.366256 2 5 cbr 1000 ------- 2 1.0 3.0 86 86
r 1.366352 1 2 cbr 24 ------- 2 1.0 3.0 87 87
+ 1.366352 2 5 cbr 24 ------- 2 1.0 3.0 87 87
d 1.366352 2 5 cbr 24 ------- 2 1.0 3.0 87 87
- 1.368347 2 5 cbr 24 ------- 2 1.0 3.0 25 25
+ 1.36864 1 2 cbr 1000 ------- 2 1.0 3.0 90 90
- 1.36864 1 2 cbr 1000 ------- 2 1.0 3.0 90 90
+ 1.36864 1 2 cbr 24 ------- 2 1.0 3.0 91 91
- 1.368987 2 5 cbr 1000 ------- 2 1.0 3.0 28 28
- 1.37264 1 2 cbr 24 ------- 2 1.0 3.0 91 91
r 1.374448 1 2 cbr 1000 ------- 2 1.0 3.0 88 88
+ 1.374448 2 5 cbr 1000 ------- 2 1.0 3.0 88 88
r 1.374544 1 2 cbr 24 ------- 2 1.0 3.0 89 89
+ 1.374544 2 5 cbr 24 ------- 2 1.0 3.0 89 89
+ 1.376427 5 8 cbr 1000 ------- 2 1.0 3.0 18 18
- 1.376427 5 8 cbr 1000 ------- 2 1.0 3.0 18 18
d 1.376431 6 8 cbr 1000 ------- 2 1.0 3.0 18 18
d 1.376431 4 8 cbr 1000 ------- 2 1.0 3.0 18 18
+ 1.376832 1 2 cbr 1000 ------- 2 1.0 3.0 92 92
- 1.376832 1 2 cbr 1000 ------- 2 1.0 3.0 92 92
+ 1.376832 1 2 cbr 24 ------- 2 1.0 3.0 93 93
+ 1.377067 5 8 cbr 24 ------- 2 1.0 3.0 19 19
- 1.380683 5 8 cbr 24 ------- 2 1.0 3.0 19 19
d 1.380687 6 8 cbr 24 ------- 2 1.0 3.0 19 19
d 1.380687 4 8 cbr 24 ------- 2 1.0 3.0 19 19
- 1.380832 1 2 cbr 24 ------- 2 1.0 3.0 93 93
r 1.38264 1 2 cbr 1000 ------- 2 1.0 3.0 90 90
+ 1.38264 2 5 cbr 1000 ------- 2 1.0 3.0 90 90
d 1.38264 2 5 cbr 1000 ------- 2 1.0 3.0 90 90
r 1.382736 1 2 cbr 24 ------- 2 1.0 3.0 91 91
+ 1.382736 2 5 cbr 24 ------- 2 1.0 3.0 91 91
d 1.382736 2 5 cbr 24 ------- 2 1.0 3.0 91 91
+ 1.385024 1 2 cbr 1000 ------- 2 1.0 3.0 94 94
- 1.385024 1 2 cbr 1000 ------- 2 1.0 3.0 94 94
+ 1.385024 1 2 cbr 24 ------- 2 1.0 3.0 95 95
- 1.389024 1 2 cbr 24 ------- 2 1.0 3.0 95 95
r 1.389124 8 3 cbr 1000 ------- 2 1.0 3.0 16 16
r 1.390832 1 2 cbr 1000 ------- 2 1.0 3.0 92 92
+ 1.390832 2 5 cbr 1000 ------- 2 1.0 3.0 92 92
d 1.390832 2 5 cbr 1000 ------- 2 1.0 3.0 92 92
r 1.390928 1 2 cbr 24 ------- 2 1.0 3.0 93 93
+ 1.390928 2 5 cbr 24 ------- 2 1.0 3.0 93 93
d 1.390928 2 5 cbr 24 ------- 2 1.0 3.0 93 93
r 1.39104 2 5 cbr 1000 ------- 2 1.0 3.0 22 22
h 1.39104 5 8 cbr 1000 ------- 2 1.0 3.0 22 22
r 1.39168 2 5 cbr 24 ------- 2 1.0 3.0 23 23
h 1.39168 5 8 cbr 24 ------- 2 1.0 3.0 23 23
+ 1.393216 1 2 cbr 1000 ------- 2 1.0 3.0 96 96
- 1.393216 1 2 cbr 1000 ------- 2 1.0 3.0 96 96
+ 1.393216 1 2 cbr 24 ------- 2 1.0 3.0 97 97
r 1.39338 8 3 cbr 24 ------- 2 1.0 3.0 17 17
- 1.395653 2 5 cbr 24 ------- 2 1.0 3.0 29 29
- 1.396293 2 5 cbr 1000 ------- 2 1.0 3.0 34 34
- 1.397216 1 2 cbr 24 ------- 2 1.0 3.0 97 97
r 1.399024 1 2 cbr 1000 ------- 2 1.0 3.0 94 94
+ 1.399024 2 5 cbr 1000 ------- 2 1.0 3.0 94 94
r 1.39912 1 2 cbr 24 ------- 2 1.0 3.0 95 95
+ 1.39912 2 5 cbr 24 ------- 2 1.0 3.0 95 95
+ 1.401408 1 2 cbr 1000 ------- 2 1.0 3.0 98 98
- 1.401408 1 2 cbr 1000 ------- 2 1.0 3.0 98 98
+ 1.401408 1 2 cbr 24 ------- 2 1.0 3.0 99 99
+ 1.403733 5 8 cbr 1000 ------- 2 1.0 3.0 20 20
- 1.403733 5 8 cbr 1000 ------- 2 1.0 3.0 20 20
d 1.403737 6 8 cbr 1000 ------- 2 1.0 3.0 20 20
d 1.403737 4 8 cbr 1000 ------- 2 1.0 3.0 20 20
+ 1.404373 5 8 cbr 24 ------- 2 1.0 3.0 21 21
- 1.405408 1 2 cbr 24 ------- 2 1.0 3.0 99 99
r 1.407216 1 2 cbr 1000 ------- 2 1.0 3.0 96 96
+ 1.407216 2 5 cbr 1000 ------- 2 1.0 3.0 96 96
d 1.407216 2 5 cbr 1000 ------- 2 1.0 3.0 96 96
r 1.407312 1 2 cbr 24 ------- 2 1.0 3.0 97 97
+ 1.407312 2 5 cbr 24 ------- 2 1.0 3.0 97 97
d 1.407312 2 5 cbr 24 ------- 2 1.0 3.0 97 97
- 1.407989 5 8 cbr 24 ------- 2 1.0 3.0 21 21
d 1.407993 6 8 cbr 24 ------- 2 1.0 3.0 21 21
d 1.407993 4 8 cbr 24 ------- 2 1.0 3.0 21 21
+ 1.4096 1 2 cbr 1000 ------- 2 1.0 3.0 100 100
- 1.4096 1 2 cbr 1000 ------- 2 1.0 3.0 100 100
+ 1.4096 1 2 cbr 24 ------- 2 1.0 3.0 101 101
- 1.4136 1 2 cbr 24 ------- 2 1.0 3.0 101 101
r 1.415408 1 2 cbr 1000 ------- 2 1.0 3.0 98 98
+ 1.415408 2 5 cbr 1000 ------- 2 1.0 3.0 98 98
d 1.415408 2 5 cbr 1000 ------- 2 1.0 3.0 98 98
r 1.415504 1 2 cbr 24 ------- 2 1.0 3.0 99 99
+ 1.415504 2 5 cbr 24 ------- 2 1.0 3.0 99 99
d 1.415504 2 5 cbr 24 ------- 2 1.0 3.0 99 99
r 1.416431 8 3 cbr 1000 ------- 2 1.0 3.0 18 18
+ 1.417792 1 2 cbr 1000 ------- 2 1.0 3.0 102 102
- 1.417792 1 2 cbr 1000 ------- 2 1.0 3.0 102 102
+ 1.417792 1 2 cbr 24 ------- 2 1.0 3.0 103 103
r 1.418347 2 5 cbr 1000 ------- 2 1.0 3.0 24 24
h 1.418347 5 8 cbr 1000 ------- 2 1.0 3.0 24 24
r 1.418987 2 5 cbr 24 ------- 2 1.0 3.0 25 25