+ 0.5 0 1 tcp 40 ------- 1 0.0 4.0 0 0
- 0.5 0 1 tcp 40 ------- 1 0.0 4.0 0 0
r 0.511067 0 1 tcp 40 ------- 1 0.0 4.0 0 0
+ 0.511067 1 4 tcp 40 ------- 1 0.0 4.0 0 0
- 0.511067 1 4 tcp 40 ------- 1 0.0 4.0 0 0
r 0.522133 1 4 tcp 40 ------- 1 0.0 4.0 0 0
+ 0.522133 4 1 ack 40 ------- 1 4.0 0.0 0 1
- 0.522133 4 1 ack 40 ------- 1 4.0 0.0 0 1
r 0.5332 4 1 ack 40 ------- 1 4.0 0.0 0 1
+ 0.5332 1 0 ack 40 ------- 1 4.0 0.0 0 1
- 0.5332 1 0 ack 40 ------- 1 4.0 0.0 0 1
r 0.544267 1 0 ack 40 ------- 1 4.0 0.0 0 1
+ 0.544267 0 1 tcp 1040 ------- 1 0.0 4.0 1 2
- 0.544267 0 1 tcp 1040 ------- 1 0.0 4.0 1 2
+ 0.544267 0 1 tcp 1040 ------- 1 0.0 4.0 2 3
- 0.572 0 1 tcp 1040 ------- 1 0.0 4.0 2 3
r 0.582 0 1 tcp 1040 ------- 1 0.0 4.0 1 2
+ 0.582 1 4 tcp 1040 ------- 1 0.0 4.0 1 2
- 0.582 1 4 tcp 1040 ------- 1 0.0 4.0 1 2
r 0.609733 0 1 tcp 1040 ------- 1 0.0 4.0 2 3
+ 0.609733 1 4 tcp 1040 ------- 1 0.0 4.0 2 3
- 0.609733 1 4 tcp 1040 ------- 1 0.0 4.0 2 3
r 0.619733 1 4 tcp 1040 ------- 1 0.0 4.0 1 2
+ 0.619733 4 1 ack 40 ------- 1 4.0 0.0 1 4
- 0.619733 4 1 ack 40 ------- 1 4.0 0.0 1 4
r 0.6308 4 1 ack 40 ------- 1 4.0 0.0 1 4
+ 0.6308 1 0 ack 40 ------- 1 4.0 0.0 1 4
- 0.6308 1 0 ack 40 ------- 1 4.0 0.0 1 4
r 0.641867 1 0 ack 40 ------- 1 4.0 0.0 1 4
+ 0.641867 0 1 tcp 1040 ------- 1 0.0 4.0 3 5
- 0.641867 0 1 tcp 1040 ------- 1 0.0 4.0 3 5
+ 0.641867 0 1 tcp 1040 ------- 1 0.0 4.0 4 6
r 0.647467 1 4 tcp 1040 ------- 1 0.0 4.0 2 3
+ 0.647467 4 1 ack 40 ------- 1 4.0 0.0 2 7
- 0.647467 4 1 ack 40 ------- 1 4.0 0.0 2 7
r 0.658533 4 1 ack 40 ------- 1 4.0 0.0 2 7
+ 0.658533 1 0 ack 40 ------- 1 4.0 0.0 2 7
- 0.658533 1 0 ack 40 ------- 1 4.0 0.0 2 7
- 0.6696 0 1 tcp 1040 ------- 1 0.0 4.0 4 6
r 0.6696 1 0 ack 40 ------- 1 4.0 0.0 2 7
+ 0.6696 0 1 tcp 1040 ------- 1 0.0 4.0 5 8
+ 0.6696 0 1 tcp 1040 ------- 1 0.0 4.0 6 9
r 0.6796 0 1 tcp 1040 ------- 1 0.0 4.0 3 5
+ 0.6796 1 4 tcp 1040 ------- 1 0.0 4.0 3 5
- 0.6796 1 4 tcp 1040 ------- 1 0.0 4.0 3 5
- 0.697333 0 1 tcp 1040 ------- 1 0.0 4.0 5 8
r 0.707333 0 1 tcp 1040 ------- 1 0.0 4.0 4 6
+ 0.707333 1 4 tcp 1040 ------- 1 0.0 4.0 4 6
- 0.707333 1 4 tcp 1040 ------- 1 0.0 4.0 4 6
r 0.717333 1 4 tcp 1040 ------- 1 0.0 4.0 3 5
+ 0.717333 4 1 ack 40 ------- 1 4.0 0.0 3 10
- 0.717333 4 1 ack 40 ------- 1 4.0 0.0 3 10
- 0.725067 0 1 tcp 1040 ------- 1 0.0 4.0 6 9
r 0.7284 4 1 ack 40 ------- 1 4.0 0.0 3 10
+ 0.7284 1 0 ack 40 ------- 1 4.0 0.0 3 10
- 0.7284 1 0 ack 40 ------- 1 4.0 0.0 3 10
r 0.735067 0 1 tcp 1040 ------- 1 0.0 4.0 5 8
+ 0.735067 1 4 tcp 1040 ------- 1 0.0 4.0 5 8
- 0.735067 1 4 tcp 1040 ------- 1 0.0 4.0 5 8
r 0.739467 1 0 ack 40 ------- 1 4.0 0.0 3 10
+ 0.739467 0 1 tcp 1040 ------- 1 0.0 4.0 7 11
+ 0.739467 0 1 tcp 1040 ------- 1 0.0 4.0 8 12
r 0.745067 1 4 tcp 1040 ------- 1 0.0 4.0 4 6
+ 0.745067 4 1 ack 40 ------- 1 4.0 0.0 4 13
- 0.745067 4 1 ack 40 ------- 1 4.0 0.0 4 13
- 0.7528 0 1 tcp 1040 ------- 1 0.0 4.0 7 11
r 0.756133 4 1 ack 40 ------- 1 4.0 0.0 4 13
+ 0.756133 1 0 ack 40 ------- 1 4.0 0.0 4 13
- 0.756133 1 0 ack 40 ------- 1 4.0 0.0 4 13
r 0.7628 0 1 tcp 1040 ------- 1 0.0 4.0 6 9
+ 0.7628 1 4 tcp 1040 ------- 1 0.0 4.0 6 9
- 0.7628 1 4 tcp 1040 ------- 1 0.0 4.0 6 9
r 0.7672 1 0 ack 40 ------- 1 4.0 0.0 4 13
+ 0.7672 0 1 tcp 1040 ------- 1 0.0 4.0 9 14
+ 0.7672 0 1 tcp 1040 ------- 1 0.0 4.0 10 15
r 0.7728 1 4 tcp 1040 ------- 1 0.0 4.0 5 8
+ 0.7728 4 1 ack 40 ------- 1 4.0 0.0 5 16
- 0.7728 4 1 ack 40 ------- 1 4.0 0.0 5 16
- 0.780533 0 1 tcp 1040 ------- 1 0.0 4.0 8 12
r 0.783867 4 1 ack 40 ------- 1 4.0 0.0 5 16
+ 0.783867 1 0 ack 40 ------- 1 4.0 0.0 5 16
- 0.783867 1 0 ack 40 ------- 1 4.0 0.0 5 16
r 0.790533 0 1 tcp 1040 ------- 1 0.0 4.0 7 11
+ 0.790533 1 4 tcp 1040 ------- 1 0.0 4.0 7 11
- 0.790533 1 4 tcp 1040 ------- 1 0.0 4.0 7 11
r 0.794933 1 0 ack 40 ------- 1 4.0 0.0 5 16
+ 0.794933 0 1 tcp 1040 ------- 1 0.0 4.0 11 17
+ 0.794933 0 1 tcp 1040 ------- 1 0.0 4.0 12 18
r 0.800533 1 4 tcp 1040 ------- 1 0.0 4.0 6 9
+ 0.800533 4 1 ack 40 ------- 1 4.0 0.0 6 19
- 0.800533 4 1 ack 40 ------- 1 4.0 0.0 6 19
- 0.808267 0 1 tcp 1040 ------- 1 0.0 4.0 9 14
r 0.8116 4 1 ack 40 ------- 1 4.0 0.0 6 19
+ 0.8116 1 0 ack 40 ------- 1 4.0 0.0 6 19
- 0.8116 1 0 ack 40 ------- 1 4.0 0.0 6 19
r 0.818267 0 1 tcp 1040 ------- 1 0.0 4.0 8 12
+ 0.818267 1 4 tcp 1040 ------- 1 0.0 4.0 8 12
- 0.818267 1 4 tcp 1040 ------- 1 0.0 4.0 8 12
r 0.822667 1 0 ack 40 ------- 1 4.0 0.0 6 19
+ 0.822667 0 1 tcp 1040 ------- 1 0.0 4.0 13 20
+ 0.822667 0 1 tcp 1040 ------- 1 0.0 4.0 14 21
r 0.828267 1 4 tcp 1040 ------- 1 0.0 4.0 7 11
+ 0.828267 4 1 ack 40 ------- 1 4.0 0.0 7 22
- 0.828267 4 1 ack 40 ------- 1 4.0 0.0 7 22
- 0.836 0 1 tcp 1040 ------- 1 0.0 4.0 10 15
r 0.839333 4 1 ack 40 ------- 1 4.0 0.0 7 22
+ 0.839333 1 0 ack 40 ------- 1 4.0 0.0 7 22
- 0.839333 1 0 ack 40 ------- 1 4.0 0.0 7 22
r 0.846 0 1 tcp 1040 ------- 1 0.0 4.0 9 14
+ 0.846 1 4 tcp 1040 ------- 1 0.0 4.0 9 14
- 0.846 1 4 tcp 1040 ------- 1 0.0 4.0 9 14
r 0.8504 1 0 ack 40 ------- 1 4.0 0.0 7 22
+ 0.8504 0 1 tcp 1040 ------- 1 0.0 4.0 15 23
+ 0.8504 0 1 tcp 1040 ------- 1 0.0 4.0 16 24
r 0.856 1 4 tcp 1040 ------- 1 0.0 4.0 8 12
+ 0.856 4 1 ack 40 ------- 1 4.0 0.0 8 25
- 0.856 4 1 ack 40 ------- 1 4.0 0.0 8 25
- 0.863733 0 1 tcp 1040 ------- 1 0.0 4.0 11 17
r 0.867067 4 1 ack 40 ------- 1 4.0 0.0 8 25
+ 0.867067 1 0 ack 40 ------- 1 4.0 0.0 8 25
- 0.867067 1 0 ack 40 ------- 1 4.0 0.0 8 25
r 0.873733 0 1 tcp 1040 ------- 1 0.0 4.0 10 15
+ 0.873733 1 4 tcp 1040 ------- 1 0.0 4.0 10 15
- 0.873733 1 4 tcp 1040 ------- 1 0.0 4.0 10 15
r 0.878133 1 0 ack 40 ------- 1 4.0 0.0 8 25
+ 0.878133 0 1 tcp 1040 ------- 1 0.0 4.0 17 26
+ 0.878133 0 1 tcp 1040 ------- 1 0.0 4.0 18 27
r 0.883733 1 4 tcp 1040 ------- 1 0.0 4.0 9 14
+ 0.883733 4 1 ack 40 ------- 1 4.0 0.0 9 28
- 0.883733 4 1 ack 40 ------- 1 4.0 0.0 9 28
- 0.891467 0 1 tcp 1040 ------- 1 0.0 4.0 12 18
r 0.8948 4 1 ack 40 ------- 1 4.0 0.0 9 28
+ 0.8948 1 0 ack 40 ------- 1 4.0 0.0 9 28
- 0.8948 1 0 ack 40 ------- 1 4.0 0.0 9 28
r 0.901467 0 1 tcp 1040 ------- 1 0.0 4.0 11 17
+ 0.901467 1 4 tcp 1040 ------- 1 0.0 4.0 11 17
- 0.901467 1 4 tcp 1040 ------- 1 0.0 4.0 11 17
r 0.905867 1 0 ack 40 ------- 1 4.0 0.0 9 28
+ 0.905867 0 1 tcp 1040 ------- 1 0.0 4.0 19 29
+ 0.905867 0 1 tcp 1040 ------- 1 0.0 4.0 20 30
r 0.911467 1 4 tcp 1040 ------- 1 0.0 4.0 10 15
+ 0.911467 4 1 ack 40 ------- 1 4.0 0.0 10 31
- 0.911467 4 1 ack 40 ------- 1 4.0 0.0 10 31
- 0.9192 0 1 tcp 1040 ------- 1 0.0 4.0 13 20
r 0.922533 4 1 ack 40 ------- 1 4.0 0.0 10 31
+ 0.922533 1 0 ack 40 ------- 1 4.0 0.0 10 31
- 0.922533 1 0 ack 40 ------- 1 4.0 0.0 10 31
r 0.9292 0 1 tcp 1040 ------- 1 0.0 4.0 12 18
+ 0.9292 1 4 tcp 1040 ------- 1 0.0 4.0 12 18
- 0.9292 1 4 tcp 1040 ------- 1 0.0 4.0 12 18
r 0.9336 1 0 ack 40 ------- 1 4.0 0.0 10 31
+ 0.9336 0 1 tcp 1040 ------- 1 0.0 4.0 21 32
+ 0.9336 0 1 tcp 1040 ------- 1 0.0 4.0 22 33
r 0.9392 1 4 tcp 1040 ------- 1 0.0 4.0 11 17
+ 0.9392 4 1 ack 40 ------- 1 4.0 0.0 11 34
- 0.9392 4 1 ack 40 ------- 1 4.0 0.0 11 34
- 0.946933 0 1 tcp 1040 ------- 1 0.0 4.0 14 21
r 0.950267 4 1 ack 40 ------- 1 4.0 0.0 11 34
+ 0.950267 1 0 ack 40 ------- 1 4.0 0.0 11 34
- 0.950267 1 0 ack 40 ------- 1 4.0 0.0 11 34
r 0.956933 0 1 tcp 1040 ------- 1 0.0 4.0 13 20
+ 0.956933 1 4 tcp 1040 ------- 1 0.0 4.0 13 20
- 0.956933 1 4 tcp 1040 ------- 1 0.0 4.0 13 20
r 0.961333 1 0 ack 40 ------- 1 4.0 0.0 11 34
+ 0.961333 0 1 tcp 1040 ------- 1 0.0 4.0 23 35
+ 0.961333 0 1 tcp 1040 ------- 1 0.0 4.0 24 36
r 0.966933 1 4 tcp 1040 ------- 1 0.0 4.0 12 18
+ 0.966933 4 1 ack 40 ------- 1 4.0 0.0 12 37
- 0.966933 4 1 ack 40 ------- 1 4.0 0.0 12 37
- 0.974667 0 1 tcp 1040 ------- 1 0.0 4.0 15 23
r 0.978 4 1 ack 40 ------- 1 4.0 0.0 12 37
+ 0.978 1 0 ack 40 ------- 1 4.0 0.0 12 37
- 0.978 1 0 ack 40 ------- 1 4.0 0.0 12 37
r 0.984667 0 1 tcp 1040 ------- 1 0.0 4.0 14 21
+ 0.984667 1 4 tcp 1040 ------- 1 0.0 4.0 14 21
- 0.984667 1 4 tcp 1040 ------- 1 0.0 4.0 14 21
r 0.989067 1 0 ack 40 ------- 1 4.0 0.0 12 37
+ 0.989067 0 1 tcp 1040 ------- 1 0.0 4.0 25 38
+ 0.989067 0 1 tcp 1040 ------- 1 0.0 4.0 26 39
r 0.994667 1 4 tcp 1040 ------- 1 0.0 4.0 13 20
+ 0.994667 4 1 ack 40 ------- 1 4.0 0.0 13 40
- 0.994667 4 1 ack 40 ------- 1 4.0 0.0 13 40
- 1.0024 0 1 tcp 1040 ------- 1 0.0 4.0 16 24
r 1.005733 4 1 ack 40 ------- 1 4.0 0.0 13 40
+ 1.005733 1 0 ack 40 ------- 1 4.0 0.0 13 40
- 1.005733 1 0 ack 40 ------- 1 4.0 0.0 13 40
r 1.0124 0 1 tcp 1040 ------- 1 0.0 4.0 15 23
+ 1.0124 1 4 tcp 1040 ------- 1 0.0 4.0 15 23
- 1.0124 1 4 tcp 1040 ------- 1 0.0 4.0 15 23
r 1.0168 1 0 ack 40 ------- 1 4.0 0.0 13 40
+ 1.0168 0 1 tcp 1040 ------- 1 0.0 4.0 27 41
+ 1.0168 0 1 tcp 1040 ------- 1 0.0 4.0 28 42
r 1.0224 1 4 tcp 1040 ------- 1 0.0 4.0 14 21
+ 1.0224 4 1 ack 40 ------- 1 4.0 0.0 14 43
- 1.0224 4 1 ack 40 ------- 1 4.0 0.0 14 43
- 1.030133 0 1 tcp 1040 ------- 1 0.0 4.0 17 26
r 1.033467 4 1 ack 40 ------- 1 4.0 0.0 14 43
+ 1.033467 1 0 ack 40 ------- 1 4.0 0.0 14 43
- 1.033467 1 0 ack 40 ------- 1 4.0 0.0 14 43
r 1.040133 0 1 tcp 1040 ------- 1 0.0 4.0 16 24
+ 1.040133 1 4 tcp 1040 ------- 1 0.0 4.0 16 24
- 1.040133 1 4 tcp 1040 ------- 1 0.0 4.0 16 24
r 1.044533 1 0 ack 40 ------- 1 4.0 0.0 14 43
+ 1.044533 0 1 tcp 1040 ------- 1 0.0 4.0 29 44
+ 1.044533 0 1 tcp 1040 ------- 1 0.0 4.0 30 45
r 1.050133 1 4 tcp 1040 ------- 1 0.0 4.0 15 23
+ 1.050133 4 1 ack 40 ------- 1 4.0 0.0 15 46
- 1.050133 4 1 ack 40 ------- 1 4.0 0.0 15 46
- 1.057867 0 1 tcp 1040 ------- 1 0.0 4.0 18 27
r 1.0612 4 1 ack 40 ------- 1 4.0 0.0 15 46
+ 1.0612 1 0 ack 40 ------- 1 4.0 0.0 15 46
- 1.0612 1 0 ack 40 ------- 1 4.0 0.0 15 46
r 1.067867 0 1 tcp 1040 ------- 1 0.0 4.0 17 26
+ 1.067867 1 4 tcp 1040 ------- 1 0.0 4.0 17 26
- 1.067867 1 4 tcp 1040 ------- 1 0.0 4.0 17 26
r 1.072267 1 0 ack 40 ------- 1 4.0 0.0 15 46
+ 1.072267 0 1 tcp 1040 ------- 1 0.0 4.0 31 47
+ 1.072267 0 1 tcp 1040 ------- 1 0.0 4.0 32 48
r 1.077867 1 4 tcp 1040 ------- 1 0.0 4.0 16 24
+ 1.077867 4 1 ack 40 ------- 1 4.0 0.0 16 49
- 1.077867 4 1 ack 40 ------- 1 4.0 0.0 16 49
- 1.0856 0 1 tcp 1040 ------- 1 0.0 4.0 19 29
r 1.088933 4 1 ack 40 ------- 1 4.0 0.0 16 49
+ 1.088933 1 0 ack 40 ------- 1 4.0 0.0 16 49
- 1.088933 1 0 ack 40 ------- 1 4.0 0.0 16 49
r 1.0956 0 1 tcp 1040 ------- 1 0.0 4.0 18 27
+ 1.0956 1 4 tcp 1040 ------- 1 0.0 4.0 18 27
- 1.0956 1 4 tcp 1040 ------- 1 0.0 4.0 18 27
r 1.1 1 0 ack 40 ------- 1 4.0 0.0 16 49
+ 1.1 0 1 tcp 1040 ------- 1 0.0 4.0 33 50
+ 1.1 0 1 tcp 1040 ------- 1 0.0 4.0 34 51
r 1.1056 1 4 tcp 1040 ------- 1 0.0 4.0 17 26
+ 1.1056 4 1 ack 40 ------- 1 4.0 0.0 17 52
- 1.1056 4 1 ack 40 ------- 1 4.0 0.0 17 52
- 1.113333 0 1 tcp 1040 ------- 1 0.0 4.0 20 30
r 1.116667 4 1 ack 40 ------- 1 4.0 0.0 17 52
+ 1.116667 1 0 ack 40 ------- 1 4.0 0.0 17 52
- 1.116667 1 0 ack 40 ------- 1 4.0 0.0 17 52
r 1.123333 0 1 tcp 1040 ------- 1 0.0 4.0 19 29
+ 1.123333 1 4 tcp 1040 ------- 1 0.0 4.0 19 29
- 1.123333 1 4 tcp 1040 ------- 1 0.0 4.0 19 29
r 1.127733 1 0 ack 40 ------- 1 4.0 0.0 17 52
+ 1.127733 0 1 tcp 1040 ------- 1 0.0 4.0 35 53
+ 1.127733 0 1 tcp 1040 ------- 1 0.0 4.0 36 54
r 1.133333 1 4 tcp 1040 ------- 1 0.0 4.0 18 27
+ 1.133333 4 1 ack 40 ------- 1 4.0 0.0 18 55
- 1.133333 4 1 ack 40 ------- 1 4.0 0.0 18 55
- 1.141067 0 1 tcp 1040 ------- 1 0.0 4.0 21 32
r 1.1444 4 1 ack 40 ------- 1 4.0 0.0 18 55
+ 1.1444 1 0 ack 40 ------- 1 4.0 0.0 18 55
- 1.1444 1 0 ack 40 ------- 1 4.0 0.0 18 55
r 1.151067 0 1 tcp 1040 ------- 1 0.0 4.0 20 30
+ 1.151067 1 4 tcp 1040 ------- 1 0.0 4.0 20 30
- 1.151067 1 4 tcp 1040 ------- 1 0.0 4.0 20 30
r 1.155467 1 0 ack 40 ------- 1 4.0 0.0 18 55
+ 1.155467 0 1 tcp 1040 ------- 1 0.0 4.0 37 56
+ 1.155467 0 1 tcp 1040 ------- 1 0.0 4.0 38 57
r 1.161067 1 4 tcp 1040 ------- 1 0.0 4.0 19 29
+ 1.161067 4 1 ack 40 ------- 1 4.0 0.0 19 58
- 1.161067 4 1 ack 40 ------- 1 4.0 0.0 19 58
- 1.1688 0 1 tcp 1040 ------- 1 0.0 4.0 22 33
r 1.172133 4 1 ack 40 ------- 1 4.0 0.0 19 58
+ 1.172133 1 0 ack 40 ------- 1 4.0 0.0 19 58
- 1.172133 1 0 ack 40 ------- 1 4.0 0.0 19 58
r 1.1788 0 1 tcp 1040 ------- 1 0.0 4.0 21 32
+ 1.1788 1 4 tcp 1040 ------- 1 0.0 4.0 21 32
- 1.1788 1 4 tcp 1040 ------- 1 0.0 4.0 21 32
r 1.1832 1 0 ack 40 ------- 1 4.0 0.0 19 58
+ 1.1832 0 1 tcp 1040 ------- 1 0.0 4.0 39 59
r 1.1888 1 4 tcp 1040 ------- 1 0.0 4.0 20 30
+ 1.1888 4 1 ack 40 ------- 1 4.0 0.0 20 60
- 1.1888 4 1 ack 40 ------- 1 4.0 0.0 20 60
- 1.196533 0 1 tcp 1040 ------- 1 0.0 4.0 23 35
r 1.199867 4 1 ack 40 ------- 1 4.0 0.0 20 60
+ 1.199867 1 0 ack 40 ------- 1 4.0 0.0 20 60
- 1.199867 1 0 ack 40 ------- 1 4.0 0.0 20 60
r 1.206533 0 1 tcp 1040 ------- 1 0.0 4.0 22 33
+ 1.206533 1 4 tcp 1040 ------- 1 0.0 4.0 22 33
- 1.206533 1 4 tcp 1040 ------- 1 0.0 4.0 22 33
r 1.210933 1 0 ack 40 ------- 1 4.0 0.0 20 60
+ 1.210933 0 1 tcp 1040 ------- 1 0.0 4.0 40 61
r 1.216533 1 4 tcp 1040 ------- 1 0.0 4.0 21 32
+ 1.216533 4 1 ack 40 ------- 1 4.0 0.0 21 62
- 1.216533 4 1 ack 40 ------- 1 4.0 0.0 21 62
- 1.224267 0 1 tcp 1040 ------- 1 0.0 4.0 24 36
r 1.2276 4 1 ack 40 ------- 1 4.0 0.0 21 62
+ 1.2276 1 0 ack 40 ------- 1 4.0 0.0 21 62
- 1.2276 1 0 ack 40 ------- 1 4.0 0.0 21 62
r 1.234267 0 1 tcp 1040 ------- 1 0.0 4.0 23 35
+ 1.234267 1 4 tcp 1040 ------- 1 0.0 4.0 23 35
- 1.234267 1 4 tcp 1040 ------- 1 0.0 4.0 23 35
r 1.238667 1 0 ack 40 ------- 1 4.0 0.0 21 62
+ 1.238667 0 1 tcp 1040 ------- 1 0.0 4.0 41 63
r 1.244267 1 4 tcp 1040 ------- 1 0.0 4.0 22 33
+ 1.244267 4 1 ack 40 ------- 1 4.0 0.0 22 64
- 1.244267 4 1 ack 40 ------- 1 4.0 0.0 22 64
- 1.252 0 1 tcp 1040 ------- 1 0.0 4.0 25 38
r 1.255333 4 1 ack 40 ------- 1 4.0 0.0 22 64
+ 1.255333 1 0 ack 40 ------- 1 4.0 0.0 22 64
- 1.255333 1 0 ack 40 ------- 1 4.0 0.0 22 64
r 1.262 0 1 tcp 1040 ------- 1 0.0 4.0 24 36
+ 1.262 1 4 tcp 1040 ------- 1 0.0 4.0 24 36
- 1.262 1 4 tcp 1040 ------- 1 0.0 4.0 24 36
r 1.2664 1 0 ack 40 ------- 1 4.0 0.0 22 64
+ 1.2664 0 1 tcp 1040 ------- 1 0.0 4.0 42 65
r 1.272 1 4 tcp 1040 ------- 1 0.0 4.0 23 35
+ 1.272 4 1 ack 40 ------- 1 4.0 0.0 23 66
- 1.272 4 1 ack 40 ------- 1 4.0 0.0 23 66
- 1.279733 0 1 tcp 1040 ------- 1 0.0 4.0 26 39
r 1.283067 4 1 ack 40 ------- 1 4.0 0.0 23 66
+ 1.283067 1 0 ack 40 ------- 1 4.0 0.0 23 66
- 1.283067 1 0 ack 40 ------- 1 4.0 0.0 23 66
r 1.289733 0 1 tcp 1040 ------- 1 0.0 4.0 25 38
+ 1.289733 1 4 tcp 1040 ------- 1 0.0 4.0 25 38
- 1.289733 1 4 tcp 1040 ------- 1 0.0 4.0 25 38
r 1.294133 1 0 ack 40 ------- 1 4.0 0.0 23 66
+ 1.294133 0 1 tcp 1040 ------- 1 0.0 4.0 43 67
r 1.299733 1 4 tcp 1040 ------- 1 0.0 4.0 24 36
+ 1.299733 4 1 ack 40 ------- 1 4.0 0.0 24 68
- 1.299733 4 1 ack 40 ------- 1 4.0 0.0 24 68
- 1.307467 0 1 tcp 1040 ------- 1 0.0 4.0 27 41
r 1.3108 4 1 ack 40 ------- 1 4.0 0.0 24 68
+ 1.3108 1 0 ack 40 ------- 1 4.0 0.0 24 68
- 1.3108 1 0 ack 40 ------- 1 4.0 0.0 24 68
r 1.317467 0 1 tcp 1040 ------- 1 0.0 4.0 26 39
+ 1.317467 1 4 tcp 1040 ------- 1 0.0 4.0 26 39
- 1.317467 1 4 tcp 1040 ------- 1 0.0 4.0 26 39
r 1.321867 1 0 ack 40 ------- 1 4.0 0.0 24 68
+ 1.321867 0 1 tcp 1040 ------- 1 0.0 4.0 44 69
r 1.327467 1 4 tcp 1040 ------- 1 0.0 4.0 25 38
+ 1.327467 4 1 ack 40 ------- 1 4.0 0.0 25 70
- 1.327467 4 1 ack 40 ------- 1 4.0 0.0 25 70
- 1.3352 0 1 tcp 1040 ------- 1 0.0 4.0 28 42
r 1.338533 4 1 ack 40 ------- 1 4.0 0.0 25 70
+ 1.338533 1 0 ack 40 ------- 1 4.0 0.0 25 70
- 1.338533 1 0 ack 40 ------- 1 4.0 0.0 25 70
r 1.3452 0 1 tcp 1040 ------- 1 0.0 4.0 27 41
+ 1.3452 1 4 tcp 1040 ------- 1 0.0 4.0 27 41
- 1.3452 1 4 tcp 1040 ------- 1 0.0 4.0 27 41
r 1.3496 1 0 ack 40 ------- 1 4.0 0.0 25 70
+ 1.3496 0 1 tcp 1040 ------- 1 0.0 4.0 45 71
r 1.3552 1 4 tcp 1040 ------- 1 0.0 4.0 26 39
+ 1.3552 4 1 ack 40 ------- 1 4.0 0.0 26 72
- 1.3552 4 1 ack 40 ------- 1 4.0 0.0 26 72
- 1.362933 0 1 tcp 1040 ------- 1 0.0 4.0 29 44
r 1.366267 4 1 ack 40 ------- 1 4.0 0.0 26 72
+ 1.366267 1 0 ack 40 ------- 1 4.0 0.0 26 72
- 1.366267 1 0 ack 40 ------- 1 4.0 0.0 26 72
r 1.372933 0 1 tcp 1040 ------- 1 0.0 4.0 28 42
+ 1.372933 1 4 tcp 1040 ------- 1 0.0 4.0 28 42
- 1.372933 1 4 tcp 1040 ------- 1 0.0 4.0 28 42
r 1.377333 1 0 ack 40 ------- 1 4.0 0.0 26 72
+ 1.377333 0 1 tcp 1040 ------- 1 0.0 4.0 46 73
r 1.382933 1 4 tcp 1040 ------- 1 0.0 4.0 27 41
+ 1.382933 4 1 ack 40 ------- 1 4.0 0.0 27 74
- 1.382933 4 1 ack 40 ------- 1 4.0 0.0 27 74
- 1.390667 0 1 tcp 1040 ------- 1 0.0 4.0 30 45
r 1.394 4 1 ack 40 ------- 1 4.0 0.0 27 74
+ 1.394 1 0 ack 40 ------- 1 4.0 0.0 27 74
- 1.394 1 0 ack 40 ------- 1 4.0 0.0 27 74
r 1.400667 0 1 tcp 1040 ------- 1 0.0 4.0 29 44
+ 1.400667 1 4 tcp 1040 ------- 1 0.0 4.0 29 44
- 1.400667 1 4 tcp 1040 ------- 1 0.0 4.0 29 44
r 1.405067 1 0 ack 40 ------- 1 4.0 0.0 27 74
+ 1.405067 0 1 tcp 1040 ------- 1 0.0 4.0 47 75
r 1.410667 1 4 tcp 1040 ------- 1 0.0 4.0 28 42
+ 1.410667 4 1 ack 40 ------- 1 4.0 0.0 28 76
- 1.410667 4 1 ack 40 ------- 1 4.0 0.0 28 76
- 1.4184 0 1 tcp 1040 ------- 1 0.0 4.0 31 47
r 1.421733 4 1 ack 40 ------- 1 4.0 0.0 28 76
+ 1.421733 1 0 ack 40 ------- 1 4.0 0.0 28 76
- 1.421733 1 0 ack 40 ------- 1 4.0 0.0 28 76
r 1.4284 0 1 tcp 1040 ------- 1 0.0 4.0 30 45
+ 1.4284 1 4 tcp 1040 ------- 1 0.0 4.0 30 45
- 1.4284 1 4 tcp 1040 ------- 1 0.0 4.0 30 45
r 1.4328 1 0 ack 40 ------- 1 4.0 0.0 28 76
+ 1.4328 0 1 tcp 1040 ------- 1 0.0 4.0 48 77
r 1.4384 1 4 tcp 1040 ------- 1 0.0 4.0 29 44
+ 1.4384 4 1 ack 40 ------- 1 4.0 0.0 29 78
- 1.4384 4 1 ack 40 ------- 1 4.0 0.0 29 78
- 1.446133 0 1 tcp 1040 ------- 1 0.0 4.0 32 48
r 1.449467 4 1 ack 40 ------- 1 4.0 0.0 29 78
+ 1.449467 1 0 ack 40 ------- 1 4.0 0.0 29 78
- 1.449467 1 0 ack 40 ------- 1 4.0 0.0 29 78
r 1.456133 0 1 tcp 1040 ------- 1 0.0 4.0 31 47
+ 1.456133 1 4 tcp 1040 ------- 1 0.0 4.0 31 47
- 1.456133 1 4 tcp 1040 ------- 1 0.0 4.0 31 47
r 1.460533 1 0 ack 40 ------- 1 4.0 0.0 29 78
+ 1.460533 0 1 tcp 1040 ------- 1 0.0 4.0 49 79
r 1.466133 1 4 tcp 1040 ------- 1 0.0 4.0 30 45
+ 1.466133 4 1 ack 40 ------- 1 4.0 0.0 30 80
- 1.466133 4 1 ack 40 ------- 1 4.0 0.0 30 80
- 1.473867 0 1 tcp 1040 ------- 1 0.0 4.0 33 50
r 1.4772 4 1 ack 40 ------- 1 4.0 0.0 30 80
+ 1.4772 1 0 ack 40 ------- 1 4.0 0.0 30 80
- 1.4772 1 0 ack 40 ------- 1 4.0 0.0 30 80
r 1.483867 0 1 tcp 1040 ------- 1 0.0 4.0 32 48
+ 1.483867 1 4 tcp 1040 ------- 1 0.0 4.0 32 48
- 1.483867 1 4 tcp 1040 ------- 1 0.0 4.0 32 48
r 1.488267 1 0 ack 40 ------- 1 4.0 0.0 30 80
+ 1.488267 0 1 tcp 1040 ------- 1 0.0 4.0 50 81
r 1.493867 1 4 tcp 1040 ------- 1 0.0 4.0 31 47
+ 1.493867 4 1 ack 40 ------- 1 4.0 0.0 31 82
- 1.493867 4 1 ack 40 ------- 1 4.0 0.0 31 82
- 1.5016 0 1 tcp 1040 ------- 1 0.0 4.0 34 51
r 1.504933 4 1 ack 40 ------- 1 4.0 0.0 31 82
+ 1.504933 1 0 ack 40 ------- 1 4.0 0.0 31 82
- 1.504933 1 0 ack 40 ------- 1 4.0 0.0 31 82
r 1.5116 0 1 tcp 1040 ------- 1 0.0 4.0 33 50
+ 1.5116 1 4 tcp 1040 ------- 1 0.0 4.0 33 50
- 1.5116 1 4 tcp 1040 ------- 1 0.0 4.0 33 50
r 1.516 1 0 ack 40 ------- 1 4.0 0.0 31 82
+ 1.516 0 1 tcp 1040 ------- 1 0.0 4.0 51 83
r 1.5216 1 4 tcp 1040 ------- 1 0.0 4.0 32 48
+ 1.5216 4 1 ack 40 ------- 1 4.0 0.0 32 84
- 1.5216 4 1 ack 40 ------- 1 4.0 0.0 32 84
- 1.529333 0 1 tcp 1040 ------- 1 0.0 4.0 35 53
r 1.532667 4 1 ack 40 ------- 1 4.0 0.0 32 84
+ 1.532667 1 0 ack 40 ------- 1 4.0 0.0 32 84
- 1.532667 1 0 ack 40 ------- 1 4.0 0.0 32 84
r 1.539333 0 1 tcp 1040 ------- 1 0.0 4.0 34 51
+ 1.539333 1 4 tcp 1040 ------- 1 0.0 4.0 34 51
- 1.539333 1 4 tcp 1040 ------- 1 0.0 4.0 34 51
r 1.543733 1 0 ack 40 ------- 1 4.0 0.0 32 84
+ 1.543733 0 1 tcp 1040 ------- 1 0.0 4.0 52 85
r 1.549333 1 4 tcp 1040 ------- 1 0.0 4.0 33 50
+ 1.549333 4 1 ack 40 ------- 1 4.0 0.0 33 86
- 1.549333 4 1 ack 40 ------- 1 4.0 0.0 33 86
- 1.557067 0 1 tcp 1040 ------- 1 0.0 4.0 36 54
r 1.5604 4 1 ack 40 ------- 1 4.0 0.0 33 86
+ 1.5604 1 0 ack 40 ------- 1 4.0 0.0 33 86
- 1.5604 1 0 ack 40 ------- 1 4.0 0.0 33 86
r 1.567067 0 1 tcp 1040 ------- 1 0.0 4.0 35 53
+ 1.567067 1 4 tcp 1040 ------- 1 0.0 4.0 35 53
- 1.567067 1 4 tcp 1040 ------- 1 0.0 4.0 35 53
r 1.571467 1 0 ack 40 ------- 1 4.0 0.0 33 86
+ 1.571467 0 1 tcp 1040 ------- 1 0.0 4.0 53 87
r 1.577067 1 4 tcp 1040 ------- 1 0.0 4.0 34 51
+ 1.577067 4 1 ack 40 ------- 1 4.0 0.0 34 88
- 1.577067 4 1 ack 40 ------- 1 4.0 0.0 34 88
- 1.5848 0 1 tcp 1040 ------- 1 0.0 4.0 37 56
r 1.588133 4 1 ack 40 ------- 1 4.0 0.0 34 88
+ 1.588133 1 0 ack 40 ------- 1 4.0 0.0 34 88
- 1.588133 1 0 ack 40 ------- 1 4.0 0.0 34 88
r 1.5948 0 1 tcp 1040 ------- 1 0.0 4.0 36 54
+ 1.5948 1 4 tcp 1040 ------- 1 0.0 4.0 36 54
- 1.5948 1 4 tcp 1040 ------- 1 0.0 4.0 36 54
r 1.5992 1 0 ack 40 ------- 1 4.0 0.0 34 88
+ 1.5992 0 1 tcp 1040 ------- 1 0.0 4.0 54 89
r 1.6048 1 4 tcp 1040 ------- 1 0.0 4.0 35 53
+ 1.6048 4 1 ack 40 ------- 1 4.0 0.0 35 90
- 1.6048 4 1 ack 40 ------- 1 4.0 0.0 35 90
- 1.612533 0 1 tcp 1040 ------- 1 0.0 4.0 38 57
r 1.615867 4 1 ack 40 ------- 1 4.0 0.0 35 90
+ 1.615867 1 0 ack 40 ------- 1 4.0 0.0 35 90
- 1.615867 1 0 ack 40 ------- 1 4.0 0.0 35 90
r 1.622533 0 1 tcp 1040 ------- 1 0.0 4.0 37 56
+ 1.622533 1 4 tcp 1040 ------- 1 0.0 4.0 37 56
- 1.622533 1 4 tcp 1040 ------- 1 0.0 4.0 37 56
r 1.626933 1 0 ack 40 ------- 1 4.0 0.0 35 90
+ 1.626933 0 1 tcp 1040 ------- 1 0.0 4.0 55 91
r 1.632533 1 4 tcp 1040 ------- 1 0.0 4.0 36 54
+ 1.632533 4 1 ack 40 ------- 1 4.0 0.0 36 92
- 1.632533 4 1 ack 40 ------- 1 4.0 0.0 36 92
- 1.640267 0 1 tcp 1040 ------- 1 0.0 4.0 39 59
r 1.6436 4 1 ack 40 ------- 1 4.0 0.0 36 92
+ 1.6436 1 0 ack 40 ------- 1 4.0 0.0 36 92
- 1.6436 1 0 ack 40 ------- 1 4.0 0.0 36 92
r 1.650267 0 1 tcp 1040 ------- 1 0.0 4.0 38 57
+ 1.650267 1 4 tcp 1040 ------- 1 0.0 4.0 38 57
- 1.650267 1 4 tcp 1040 ------- 1 0.0 4.0 38 57
r 1.654667 1 0 ack 40 ------- 1 4.0 0.0 36 92
+ 1.654667 0 1 tcp 1040 ------- 1 0.0 4.0 56 93
r 1.660267 1 4 tcp 1040 ------- 1 0.0 4.0 37 56
+ 1.660267 4 1 ack 40 ------- 1 4.0 0.0 37 94
- 1.660267 4 1 ack 40 ------- 1 4.0 0.0 37 94
- 1.668 0 1 tcp 1040 ------- 1 0.0 4.0 40 61
r 1.671333 4 1 ack 40 ------- 1 4.0 0.0 37 94
+ 1.671333 1 0 ack 40 ------- 1 4.0 0.0 37 94
- 1.671333 1 0 ack 40 ------- 1 4.0 0.0 37 94
r 1.678 0 1 tcp 1040 ------- 1 0.0 4.0 39 59
+ 1.678 1 4 tcp 1040 ------- 1 0.0 4.0 39 59
- 1.678 1 4 tcp 1040 ------- 1 0.0 4.0 39 59
r 1.6824 1 0 ack 40 ------- 1 4.0 0.0 37 94
+ 1.6824 0 1 tcp 1040 ------- 1 0.0 4.0 57 95
r 1.688 1 4 tcp 1040 ------- 1 0.0 4.0 38 57
+ 1.688 4 1 ack 40 ------- 1 4.0 0.0 38 96
- 1.688 4 1 ack 40 ------- 1 4.0 0.0 38 96
- 1.695733 0 1 tcp 1040 ------- 1 0.0 4.0 41 63
r 1.699067 4 1 ack 40 ------- 1 4.0 0.0 38 96
+ 1.699067 1 0 ack 40 ------- 1 4.0 0.0 38 96
- 1.699067 1 0 ack 40 ------- 1 4.0 0.0 38 96
r 1.705733 0 1 tcp 1040 ------- 1 0.0 4.0 40 61
+ 1.705733 1 4 tcp 1040 ------- 1 0.0 4.0 40 61
- 1.705733 1 4 tcp 1040 ------- 1 0.0 4.0 40 61
r 1.710133 1 0 ack 40 ------- 1 4.0 0.0 38 96
+ 1.710133 0 1 tcp 1040 ------- 1 0.0 4.0 58 97
r 1.715733 1 4 tcp 1040 ------- 1 0.0 4.0 39 59
+ 1.715733 4 1 ack 40 ------- 1 4.0 0.0 39 98
- 1.715733 4 1 ack 40 ------- 1 4.0 0.0 39 98
- 1.723467 0 1 tcp 1040 ------- 1 0.0 4.0 42 65
r 1.7268 4 1 ack 40 ------- 1 4.0 0.0 39 98
+ 1.7268 1 0 ack 40 ------- 1 4.0 0.0 39 98
- 1.7268 1 0 ack 40 ------- 1 4.0 0.0 39 98
r 1.733467 0 1 tcp 1040 ------- 1 0.0 4.0 41 63
+ 1.733467 1 4 tcp 1040 ------- 1 0.0 4.0 41 63
- 1.733467 1 4 tcp 1040 ------- 1 0.0 4.0 41 63
r 1.737867 1 0 ack 40 ------- 1 4.0 0.0 39 98
+ 1.737867 0 1 tcp 1040 ------- 1 0.0 4.0 59 99
r 1.743467 1 4 tcp 1040 ------- 1 0.0 4.0 40 61
+ 1.743467 4 1 ack 40 ------- 1 4.0 0.0 40 100
- 1.743467 4 1 ack 40 ------- 1 4.0 0.0 40 100
- 1.7512 0 1 tcp 1040 ------- 1 0.0 4.0 43 67
r 1.754533 4 1 ack 40 ------- 1 4.0 0.0 40 100
+ 1.754533 1 0 ack 40 ------- 1 4.0 0.0 40 100
- 1.754533 1 0 ack 40 ------- 1 4.0 0.0 40 100
r 1.7612 0 1 tcp 1040 ------- 1 0.0 4.0 42 65
+ 1.7612 1 4 tcp 1040 ------- 1 0.0 4.0 42 65
- 1.7612 1 4 tcp 1040 ------- 1 0.0 4.0 42 65
r 1.7656 1 0 ack 40 ------- 1 4.0 0.0 40 100
+ 1.7656 0 1 tcp 1040 ------- 1 0.0 4.0 60 101
r 1.7712 1 4 tcp 1040 ------- 1 0.0 4.0 41 63
+ 1.7712 4 1 ack 40 ------- 1 4.0 0.0 41 102
- 1.7712 4 1 ack 40 ------- 1 4.0 0.0 41 102
- 1.778933 0 1 tcp 1040 ------- 1 0.0 4.0 44 69
r 1.782267 4 1 ack 40 ------- 1 4.0 0.0 41 102
+ 1.782267 1 0 ack 40 ------- 1 4.0 0.0 41 102
- 1.782267 1 0 ack 40 ------- 1 4.0 0.0 41 102
r 1.788933 0 1 tcp 1040 ------- 1 0.0 4.0 43 67
+ 1.788933 1 4 tcp 1040 ------- 1 0.0 4.0 43 67
- 1.788933 1 4 tcp 1040 ------- 1 0.0 4.0 43 67
r 1.793333 1 0 ack 40 ------- 1 4.0 0.0 41 102
+ 1.793333 0 1 tcp 1040 ------- 1 0.0 4.0 61 103
r 1.798933 1 4 tcp 1040 ------- 1 0.0 4.0 42 65
+ 1.798933 4 1 ack 40 ------- 1 4.0 0.0 42 104
- 1.798933 4 1 ack 40 ------- 1 4.0 0.0 42 104
- 1.806667 0 1 tcp 1040 ------- 1 0.0 4.0 45 71
r 1.81 4 1 ack 40 ------- 1 4.0 0.0 42 104
+ 1.81 1 0 ack 40 ------- 1 4.0 0.0 42 104
- 1.81 1 0 ack 40 ------- 1 4.0 0.0 42 104
r 1.816667 0 1 tcp 1040 ------- 1 0.0 4.0 44 69
+ 1.816667 1 4 tcp 1040 ------- 1 0.0 4.0 44 69
- 1.816667 1 4 tcp 1040 ------- 1 0.0 4.0 44 69
r 1.821067 1 0 ack 40 ------- 1 4.0 0.0 42 104
+ 1.821067 0 1 tcp 1040 ------- 1 0.0 4.0 62 105
r 1.826667 1 4 tcp 1040 ------- 1 0.0 4.0 43 67
+ 1.826667 4 1 ack 40 ------- 1 4.0 0.0 43 106
- 1.826667 4 1 ack 40 ------- 1 4.0 0.0 43 106
- 1.8344 0 1 tcp 1040 ------- 1 0.0 4.0 46 73
r 1.837733 4 1 ack 40 ------- 1 4.0 0.0 43 106
+ 1.837733 1 0 ack 40 ------- 1 4.0 0.0 43 106
- 1.837733 1 0 ack 40 ------- 1 4.0 0.0 43 106
r 1.8444 0 1 tcp 1040 ------- 1 0.0 4.0 45 71
+ 1.8444 1 4 tcp 1040 ------- 1 0.0 4.0 45 71
- 1.8444 1 4 tcp 1040 ------- 1 0.0 4.0 45 71
r 1.8488 1 0 ack 40 ------- 1 4.0 0.0 43 106
+ 1.8488 0 1 tcp 1040 ------- 1 0.0 4.0 63 107
r 1.8544 1 4 tcp 1040 ------- 1 0.0 4.0 44 69
+ 1.8544 4 1 ack 40 ------- 1 4.0 0.0 44 108
- 1.8544 4 1 ack 40 ------- 1 4.0 0.0 44 108
- 1.862133 0 1 tcp 1040 ------- 1 0.0 4.0 47 75
r 1.865467 4 1 ack 40 ------- 1 4.0 0.0 44 108
+ 1.865467 1 0 ack 40 ------- 1 4.0 0.0 44 108
- 1.865467 1 0 ack 40 ------- 1 4.0 0.0 44 108
r 1.872133 0 1 tcp 1040 ------- 1 0.0 4.0 46 73
+ 1.872133 1 4 tcp 1040 ------- 1 0.0 4.0 46 73
- 1.872133 1 4 tcp 1040 ------- 1 0.0 4.0 46 73
r 1.876533 1 0 ack 40 ------- 1 4.0 0.0 44 108
+ 1.876533 0 1 tcp 1040 ------- 1 0.0 4.0 64 109
r 1.882133 1 4 tcp 1040 ------- 1 0.0 4.0 45 71
+ 1.882133 4 1 ack 40 ------- 1 4.0 0.0 45 110
- 1.882133 4 1 ack 40 ------- 1 4.0 0.0 45 110
- 1.889867 0 1 tcp 1040 ------- 1 0.0 4.0 48 77
r 1.8932 4 1 ack 40 ------- 1 4.0 0.0 45 110
+ 1.8932 1 0 ack 40 ------- 1 4.0 0.0 45 110
- 1.8932 1 0 ack 40 ------- 1 4.0 0.0 45 110
r 1.899867 0 1 tcp 1040 ------- 1 0.0 4.0 47 75
+ 1.899867 1 4 tcp 1040 ------- 1 0.0 4.0 47 75
- 1.899867 1 4 tcp 1040 ------- 1 0.0 4.0 47 75
r 1.904267 1 0 ack 40 ------- 1 4.0 0.0 45 110
+ 1.904267 0 1 tcp 1040 ------- 1 0.0 4.0 65 111
r 1.909867 1 4 tcp 1040 ------- 1 0.0 4.0 46 73
+ 1.909867 4 1 ack 40 ------- 1 4.0 0.0 46 112
- 1.909867 4 1 ack 40 ------- 1 4.0 0.0 46 112
- 1.9176 0 1 tcp 1040 ------- 1 0.0 4.0 49 79
r 1.920933 4 1 ack 40 ------- 1 4.0 0.0 46 112
+ 1.920933 1 0 ack 40 ------- 1 4.0 0.0 46 112
- 1.920933 1 0 ack 40 ------- 1 4.0 0.0 46 112
r 1.9276 0 1 tcp 1040 ------- 1 0.0 4.0 48 77
+ 1.9276 1 4 tcp 1040 ------- 1 0.0 4.0 48 77
- 1.9276 1 4 tcp 1040 ------- 1 0.0 4.0 48 77
r 1.932 1 0 ack 40 ------- 1 4.0 0.0 46 112
+ 1.932 0 1 tcp 1040 ------- 1 0.0 4.0 66 113
r 1.9376 1 4 tcp 1040 ------- 1 0.0 4.0 47 75
+ 1.9376 4 1 ack 40 ------- 1 4.0 0.0 47 114
- 1.9376 4 1 ack 40 ------- 1 4.0 0.0 47 114
- 1.945333 0 1 tcp 1040 ------- 1 0.0 4.0 50 81
r 1.948667 4 1 ack 40 ------- 1 4.0 0.0 47 114
+ 1.948667 1 0 ack 40 ------- 1 4.0 0.0 47 114
- 1.948667 1 0 ack 40 ------- 1 4.0 0.0 47 114
r 1.955333 0 1 tcp 1040 ------- 1 0.0 4.0 49 79
+ 1.955333 1 4 tcp 1040 ------- 1 0.0 4.0 49 79
- 1.955333 1 4 tcp 1040 ------- 1 0.0 4.0 49 79
r 1.959733 1 0 ack 40 ------- 1 4.0 0.0 47 114
+ 1.959733 0 1 tcp 1040 ------- 1 0.0 4.0 67 115
r 1.965333 1 4 tcp 1040 ------- 1 0.0 4.0 48 77
+ 1.965333 4 1 ack 40 ------- 1 4.0 0.0 48 116
- 1.965333 4 1 ack 40 ------- 1 4.0 0.0 48 116
- 1.973067 0 1 tcp 1040 ------- 1 0.0 4.0 51 83
r 1.9764 4 1 ack 40 ------- 1 4.0 0.0 48 116
+ 1.9764 1 0 ack 40 ------- 1 4.0 0.0 48 116
- 1.9764 1 0 ack 40 ------- 1 4.0 0.0 48 116
r 1.983067 0 1 tcp 1040 ------- 1 0.0 4.0 50 81
+ 1.983067 1 4 tcp 1040 ------- 1 0.0 4.0 50 81
- 1.983067 1 4 tcp 1040 ------- 1 0.0 4.0 50 81
r 1.987467 1 0 ack 40 ------- 1 4.0 0.0 48 116
+ 1.987467 0 1 tcp 1040 ------- 1 0.0 4.0 68 117
r 1.993067 1 4 tcp 1040 ------- 1 0.0 4.0 49 79
+ 1.993067 4 1 ack 40 ------- 1 4.0 0.0 49 118
- 1.993067 4 1 ack 40 ------- 1 4.0 0.0 49 118
- 2.0008 0 1 tcp 1040 ------- 1 0.0 4.0 52 85
r 2.004133 4 1 ack 40 ------- 1 4.0 0.0 49 118
+ 2.004133 1 0 ack 40 ------- 1 4.0 0.0 49 118
- 2.004133 1 0 ack 40 ------- 1 4.0 0.0 49 118
r 2.0108 0 1 tcp 1040 ------- 1 0.0 4.0 51 83
+ 2.0108 1 4 tcp 1040 ------- 1 0.0 4.0 51 83
- 2.0108 1 4 tcp 1040 ------- 1 0.0 4.0 51 83
r 2.0152 1 0 ack 40 ------- 1 4.0 0.0 49 118
+ 2.0152 0 1 tcp 1040 ------- 1 0.0 4.0 69 119
r 2.0208 1 4 tcp 1040 ------- 1 0.0 4.0 50 81
+ 2.0208 4 1 ack 40 ------- 1 4.0 0.0 50 120
- 2.0208 4 1 ack 40 ------- 1 4.0 0.0 50 120
- 2.028533 0 1 tcp 1040 ------- 1 0.0 4.0 53 87
r 2.031867 4 1 ack 40 ------- 1 4.0 0.0 50 120
+ 2.031867 1 0 ack 40 ------- 1 4.0 0.0 50 120
- 2.031867 1 0 ack 40 ------- 1 4.0 0.0 50 120
r 2.038533 0 1 tcp 1040 ------- 1 0.0 4.0 52 85
+ 2.038533 1 4 tcp 1040 ------- 1 0.0 4.0 52 85
- 2.038533 1 4 tcp 1040 ------- 1 0.0 4.0 52 85
r 2.042933 1 0 ack 40 ------- 1 4.0 0.0 50 120
+ 2.042933 0 1 tcp 1040 ------- 1 0.0 4.0 70 121
r 2.048533 1 4 tcp 1040 ------- 1 0.0 4.0 51 83
+ 2.048533 4 1 ack 40 ------- 1 4.0 0.0 51 122
- 2.048533 4 1 ack 40 ------- 1 4.0 0.0 51 122
- 2.056267 0 1 tcp 1040 ------- 1 0.0 4.0 54 89
r 2.0596 4 1 ack 40 ------- 1 4.0 0.0 51 122
+ 2.0596 1 0 ack 40 ------- 1 4.0 0.0 51 122
- 2.0596 1 0 ack 40 ------- 1 4.0 0.0 51 122
r 2.066267 0 1 tcp 1040 ------- 1 0.0 4.0 53 87
+ 2.066267 1 4 tcp 1040 ------- 1 0.0 4.0 53 87