V -t * -v 1.0a5 -a 0
A -t * -n 1 -p 0 -o 0x7fffffff -c 30 -a 1
A -t * -h 1 -m 1073741823 -s 0
c -t * -i 1 -n Blue
n -t * -a 4 -s 4 -S UP -v circle -c black -i black
n -t * -a 0 -s 0 -S UP -v circle -c black -i black
n -t * -a 1 -s 1 -S UP -v circle -c black -i black
n -t * -a 2 -s 2 -S UP -v circle -c black -i black
n -t * -a 3 -s 3 -S UP -v circle -c black -i black
l -t * -s 0 -d 1 -S UP -r 300000 -D 0.01 -c black -o right
l -t * -s 1 -d 2 -S UP -r 300000 -D 0.01 -c black -o right
l -t * -s 2 -d 3 -S UP -r 300000 -D 0.01 -c black -o up
l -t * -s 1 -d 4 -S UP -r 300000 -D 0.01 -c black -o up
+ -t 0.5 -s 0 -d 1 -p tcp -e 40 -c 1 -i 0 -a 1 -x {0.0 4.0 0 ------- null}
- -t 0.5 -s 0 -d 1 -p tcp -e 40 -c 1 -i 0 -a 1 -x {0.0 4.0 0 ------- null}
h -t 0.5 -s 0 -d 1 -p tcp -e 40 -c 1 -i 0 -a 1 -x {0.0 4.0 -1 ------- null}
r -t 0.511066666666667 -s 0 -d 1 -p tcp -e 40 -c 1 -i 0 -a 1 -x {0.0 4.0 0 ------- null}
+ -t 0.511066666666667 -s 1 -d 4 -p tcp -e 40 -c 1 -i 0 -a 1 -x {0.0 4.0 0 ------- null}
- -t 0.511066666666667 -s 1 -d 4 -p tcp -e 40 -c 1 -i 0 -a 1 -x {0.0 4.0 0 ------- null}
h -t 0.511066666666667 -s 1 -d 4 -p tcp -e 40 -c 1 -i 0 -a 1 -x {0.0 4.0 -1 ------- null}
r -t 0.522133333333333 -s 1 -d 4 -p tcp -e 40 -c 1 -i 0 -a 1 -x {0.0 4.0 0 ------- null}
+ -t 0.522133333333333 -s 4 -d 1 -p ack -e 40 -c 1 -i 1 -a 1 -x {4.0 0.0 0 ------- null}
- -t 0.522133333333333 -s 4 -d 1 -p ack -e 40 -c 1 -i 1 -a 1 -x {4.0 0.0 0 ------- null}
h -t 0.522133333333333 -s 4 -d 1 -p ack -e 40 -c 1 -i 1 -a 1 -x {4.0 0.0 -1 ------- null}
r -t 0.5332 -s 4 -d 1 -p ack -e 40 -c 1 -i 1 -a 1 -x {4.0 0.0 0 ------- null}
+ -t 0.5332 -s 1 -d 0 -p ack -e 40 -c 1 -i 1 -a 1 -x {4.0 0.0 0 ------- null}
- -t 0.5332 -s 1 -d 0 -p ack -e 40 -c 1 -i 1 -a 1 -x {4.0 0.0 0 ------- null}
h -t 0.5332 -s 1 -d 0 -p ack -e 40 -c 1 -i 1 -a 1 -x {4.0 0.0 -1 ------- null}
r -t 0.544266666666667 -s 1 -d 0 -p ack -e 40 -c 1 -i 1 -a 1 -x {4.0 0.0 0 ------- null}
+ -t 0.544266666666667 -s 0 -d 1 -p tcp -e 1040 -c 1 -i 2 -a 1 -x {0.0 4.0 1 ------- null}
- -t 0.544266666666667 -s 0 -d 1 -p tcp -e 1040 -c 1 -i 2 -a 1 -x {0.0 4.0 1 ------- null}
h -t 0.544266666666667 -s 0 -d 1 -p tcp -e 1040 -c 1 -i 2 -a 1 -x {0.0 4.0 -1 ------- null}
+ -t 0.544266666666667 -s 0 -d 1 -p tcp -e 1040 -c 1 -i 3 -a 1 -x {0.0 4.0 2 ------- null}
- -t 0.572 -s 0 -d 1 -p tcp -e 1040 -c 1 -i 3 -a 1 -x {0.0 4.0 2 ------- null}
h -t 0.572 -s 0 -d 1 -p tcp -e 1040 -c 1 -i 3 -a 1 -x {0.0 4.0 -1 ------- null}
r -t 0.582 -s 0 -d 1 -p tcp -e 1040 -c 1 -i 2 -a 1 -x {0.0 4.0 1 ------- null}
+ -t 0.582 -s 1 -d 4 -p tcp -e 1040 -c 1 -i 2 -a 1 -x {0.0 4.0 1 ------- null}
- -t 0.582 -s 1 -d 4 -p tcp -e 1040 -c 1 -i 2 -a 1 -x {0.0 4.0 1 ------- null}
h -t 0.582 -s 1 -d 4 -p tcp -e 1040 -c 1 -i 2 -a 1 -x {0.0 4.0 -1 ------- null}
r -t 0.609733333333333 -s 0 -d 1 -p tcp -e 1040 -c 1 -i 3 -a 1 -x {0.0 4.0 2 ------- null}
+ -t 0.609733333333333 -s 1 -d 4 -p tcp -e 1040 -c 1 -i 3 -a 1 -x {0.0 4.0 2 ------- null}
- -t 0.609733333333333 -s 1 -d 4 -p tcp -e 1040 -c 1 -i 3 -a 1 -x {0.0 4.0 2 ------- null}
h -t 0.609733333333333 -s 1 -d 4 -p tcp -e 1040 -c 1 -i 3 -a 1 -x {0.0 4.0 -1 ------- null}
r -t 0.619733333333333 -s 1 -d 4 -p tcp -e 1040 -c 1 -i 2 -a 1 -x {0.0 4.0 1 ------- null}
+ -t 0.619733333333333 -s 4 -d 1 -p ack -e 40 -c 1 -i 4 -a 1 -x {4.0 0.0 1 ------- null}
- -t 0.619733333333333 -s 4 -d 1 -p ack -e 40 -c 1 -i 4 -a 1 -x {4.0 0.0 1 ------- null}
h -t 0.619733333333333 -s 4 -d 1 -p ack -e 40 -c 1 -i 4 -a 1 -x {4.0 0.0 -1 ------- null}
r -t 0.6308 -s 4 -d 1 -p ack -e 40 -c 1 -i 4 -a 1 -x {4.0 0.0 1 ------- null}
+ -t 0.6308 -s 1 -d 0 -p ack -e 40 -c 1 -i 4 -a 1 -x {4.0 0.0 1 ------- null}
- -t 0.6308 -s 1 -d 0 -p ack -e 40 -c 1 -i 4 -a 1 -x {4.0 0.0 1 ------- null}
h -t 0.6308 -s 1 -d 0 -p ack -e 40 -c 1 -i 4 -a 1 -x {4.0 0.0 -1 ------- null}
r -t 0.641866666666667 -s 1 -d 0 -p ack -e 40 -c 1 -i 4 -a 1 -x {4.0 0.0 1 ------- null}
+ -t 0.641866666666667 -s 0 -d 1 -p tcp -e 1040 -c 1 -i 5 -a 1 -x {0.0 4.0 3 ------- null}
- -t 0.641866666666667 -s 0 -d 1 -p tcp -e 1040 -c 1 -i 5 -a 1 -x {0.0 4.0 3 ------- null}
h -t 0.641866666666667 -s 0 -d 1 -p tcp -e 1040 -c 1 -i 5 -a 1 -x {0.0 4.0 -1 ------- null}
+ -t 0.641866666666667 -s 0 -d 1 -p tcp -e 1040 -c 1 -i 6 -a 1 -x {0.0 4.0 4 ------- null}
r -t 0.647466666666667 -s 1 -d 4 -p tcp -e 1040 -c 1 -i 3 -a 1 -x {0.0 4.0 2 ------- null}
+ -t 0.647466666666667 -s 4 -d 1 -p ack -e 40 -c 1 -i 7 -a 1 -x {4.0 0.0 2 ------- null}
- -t 0.647466666666667 -s 4 -d 1 -p ack -e 40 -c 1 -i 7 -a 1 -x {4.0 0.0 2 ------- null}
h -t 0.647466666666667 -s 4 -d 1 -p ack -e 40 -c 1 -i 7 -a 1 -x {4.0 0.0 -1 ------- null}
r -t 0.658533333333333 -s 4 -d 1 -p ack -e 40 -c 1 -i 7 -a 1 -x {4.0 0.0 2 ------- null}
+ -t 0.658533333333333 -s 1 -d 0 -p ack -e 40 -c 1 -i 7 -a 1 -x {4.0 0.0 2 ------- null}
- -t 0.658533333333333 -s 1 -d 0 -p ack -e 40 -c 1 -i 7 -a 1 -x {4.0 0.0 2 ------- null}
h -t 0.658533333333333 -s 1 -d 0 -p ack -e 40 -c 1 -i 7 -a 1 -x {4.0 0.0 -1 ------- null}
- -t 0.6696 -s 0 -d 1 -p tcp -e 1040 -c 1 -i 6 -a 1 -x {0.0 4.0 4 ------- null}
h -t 0.6696 -s 0 -d 1 -p tcp -e 1040 -c 1 -i 6 -a 1 -x {0.0 4.0 -1 ------- null}
r -t 0.6696 -s 1 -d 0 -p ack -e 40 -c 1 -i 7 -a 1 -x {4.0 0.0 2 ------- null}
+ -t 0.6696 -s 0 -d 1 -p tcp -e 1040 -c 1 -i 8 -a 1 -x {0.0 4.0 5 ------- null}
+ -t 0.6696 -s 0 -d 1 -p tcp -e 1040 -c 1 -i 9 -a 1 -x {0.0 4.0 6 ------- null}
r -t 0.6796 -s 0 -d 1 -p tcp -e 1040 -c 1 -i 5 -a 1 -x {0.0 4.0 3 ------- null}
+ -t 0.6796 -s 1 -d 4 -p tcp -e 1040 -c 1 -i 5 -a 1 -x {0.0 4.0 3 ------- null}
- -t 0.6796 -s 1 -d 4 -p tcp -e 1040 -c 1 -i 5 -a 1 -x {0.0 4.0 3 ------- null}
h -t 0.6796 -s 1 -d 4 -p tcp -e 1040 -c 1 -i 5 -a 1 -x {0.0 4.0 -1 ------- null}
- -t 0.697333333333333 -s 0 -d 1 -p tcp -e 1040 -c 1 -i 8 -a 1 -x {0.0 4.0 5 ------- null}
h -t 0.697333333333333 -s 0 -d 1 -p tcp -e 1040 -c 1 -i 8 -a 1 -x {0.0 4.0 -1 ------- null}
r -t 0.707333333333333 -s 0 -d 1 -p tcp -e 1040 -c 1 -i 6 -a 1 -x {0.0 4.0 4 ------- null}
+ -t 0.707333333333333 -s 1 -d 4 -p tcp -e 1040 -c 1 -i 6 -a 1 -x {0.0 4.0 4 ------- null}
- -t 0.707333333333333 -s 1 -d 4 -p tcp -e 1040 -c 1 -i 6 -a 1 -x {0.0 4.0 4 ------- null}
h -t 0.707333333333333 -s 1 -d 4 -p tcp -e 1040 -c 1 -i 6 -a 1 -x {0.0 4.0 -1 ------- null}
r -t 0.717333333333333 -s 1 -d 4 -p tcp -e 1040 -c 1 -i 5 -a 1 -x {0.0 4.0 3 ------- null}
+ -t 0.717333333333333 -s 4 -d 1 -p ack -e 40 -c 1 -i 10 -a 1 -x {4.0 0.0 3 ------- null}
- -t 0.717333333333333 -s 4 -d 1 -p ack -e 40 -c 1 -i 10 -a 1 -x {4.0 0.0 3 ------- null}
h -t 0.717333333333333 -s 4 -d 1 -p ack -e 40 -c 1 -i 10 -a 1 -x {4.0 0.0 -1 ------- null}
- -t 0.725066666666667 -s 0 -d 1 -p tcp -e 1040 -c 1 -i 9 -a 1 -x {0.0 4.0 6 ------- null}
h -t 0.725066666666667 -s 0 -d 1 -p tcp -e 1040 -c 1 -i 9 -a 1 -x {0.0 4.0 -1 ------- null}
r -t 0.7284 -s 4 -d 1 -p ack -e 40 -c 1 -i 10 -a 1 -x {4.0 0.0 3 ------- null}
+ -t 0.7284 -s 1 -d 0 -p ack -e 40 -c 1 -i 10 -a 1 -x {4.0 0.0 3 ------- null}
- -t 0.7284 -s 1 -d 0 -p ack -e 40 -c 1 -i 10 -a 1 -x {4.0 0.0 3 ------- null}
h -t 0.7284 -s 1 -d 0 -p ack -e 40 -c 1 -i 10 -a 1 -x {4.0 0.0 -1 ------- null}
r -t 0.735066666666667 -s 0 -d 1 -p tcp -e 1040 -c 1 -i 8 -a 1 -x {0.0 4.0 5 ------- null}
+ -t 0.735066666666667 -s 1 -d 4 -p tcp -e 1040 -c 1 -i 8 -a 1 -x {0.0 4.0 5 ------- null}
- -t 0.735066666666667 -s 1 -d 4 -p tcp -e 1040 -c 1 -i 8 -a 1 -x {0.0 4.0 5 ------- null}
h -t 0.735066666666667 -s 1 -d 4 -p tcp -e 1040 -c 1 -i 8 -a 1 -x {0.0 4.0 -1 ------- null}
r -t 0.739466666666666 -s 1 -d 0 -p ack -e 40 -c 1 -i 10 -a 1 -x {4.0 0.0 3 ------- null}
+ -t 0.739466666666666 -s 0 -d 1 -p tcp -e 1040 -c 1 -i 11 -a 1 -x {0.0 4.0 7 ------- null}
+ -t 0.739466666666666 -s 0 -d 1 -p tcp -e 1040 -c 1 -i 12 -a 1 -x {0.0 4.0 8 ------- null}
r -t 0.745066666666667 -s 1 -d 4 -p tcp -e 1040 -c 1 -i 6 -a 1 -x {0.0 4.0 4 ------- null}
+ -t 0.745066666666667 -s 4 -d 1 -p ack -e 40 -c 1 -i 13 -a 1 -x {4.0 0.0 4 ------- null}
- -t 0.745066666666667 -s 4 -d 1 -p ack -e 40 -c 1 -i 13 -a 1 -x {4.0 0.0 4 ------- null}
h -t 0.745066666666667 -s 4 -d 1 -p ack -e 40 -c 1 -i 13 -a 1 -x {4.0 0.0 -1 ------- null}
- -t 0.7528 -s 0 -d 1 -p tcp -e 1040 -c 1 -i 11 -a 1 -x {0.0 4.0 7 ------- null}
h -t 0.7528 -s 0 -d 1 -p tcp -e 1040 -c 1 -i 11 -a 1 -x {0.0 4.0 -1 ------- null}
r -t 0.756133333333333 -s 4 -d 1 -p ack -e 40 -c 1 -i 13 -a 1 -x {4.0 0.0 4 ------- null}
+ -t 0.756133333333333 -s 1 -d 0 -p ack -e 40 -c 1 -i 13 -a 1 -x {4.0 0.0 4 ------- null}
- -t 0.756133333333333 -s 1 -d 0 -p ack -e 40 -c 1 -i 13 -a 1 -x {4.0 0.0 4 ------- null}
h -t 0.756133333333333 -s 1 -d 0 -p ack -e 40 -c 1 -i 13 -a 1 -x {4.0 0.0 -1 ------- null}
r -t 0.7628 -s 0 -d 1 -p tcp -e 1040 -c 1 -i 9 -a 1 -x {0.0 4.0 6 ------- null}
+ -t 0.7628 -s 1 -d 4 -p tcp -e 1040 -c 1 -i 9 -a 1 -x {0.0 4.0 6 ------- null}
- -t 0.7628 -s 1 -d 4 -p tcp -e 1040 -c 1 -i 9 -a 1 -x {0.0 4.0 6 ------- null}
h -t 0.7628 -s 1 -d 4 -p tcp -e 1040 -c 1 -i 9 -a 1 -x {0.0 4.0 -1 ------- null}
r -t 0.7672 -s 1 -d 0 -p ack -e 40 -c 1 -i 13 -a 1 -x {4.0 0.0 4 ------- null}
+ -t 0.7672 -s 0 -d 1 -p tcp -e 1040 -c 1 -i 14 -a 1 -x {0.0 4.0 9 ------- null}
+ -t 0.7672 -s 0 -d 1 -p tcp -e 1040 -c 1 -i 15 -a 1 -x {0.0 4.0 10 ------- null}
r -t 0.7728 -s 1 -d 4 -p tcp -e 1040 -c 1 -i 8 -a 1 -x {0.0 4.0 5 ------- null}
+ -t 0.7728 -s 4 -d 1 -p ack -e 40 -c 1 -i 16 -a 1 -x {4.0 0.0 5 ------- null}
- -t 0.7728 -s 4 -d 1 -p ack -e 40 -c 1 -i 16 -a 1 -x {4.0 0.0 5 ------- null}
h -t 0.7728 -s 4 -d 1 -p ack -e 40 -c 1 -i 16 -a 1 -x {4.0 0.0 -1 ------- null}
- -t 0.780533333333334 -s 0 -d 1 -p tcp -e 1040 -c 1 -i 12 -a 1 -x {0.0 4.0 8 ------- null}
h -t 0.780533333333334 -s 0 -d 1 -p tcp -e 1040 -c 1 -i 12 -a 1 -x {0.0 4.0 -1 ------- null}
r -t 0.783866666666667 -s 4 -d 1 -p ack -e 40 -c 1 -i 16 -a 1 -x {4.0 0.0 5 ------- null}
+ -t 0.783866666666667 -s 1 -d 0 -p ack -e 40 -c 1 -i 16 -a 1 -x {4.0 0.0 5 ------- null}
- -t 0.783866666666667 -s 1 -d 0 -p ack -e 40 -c 1 -i 16 -a 1 -x {4.0 0.0 5 ------- null}
h -t 0.783866666666667 -s 1 -d 0 -p ack -e 40 -c 1 -i 16 -a 1 -x {4.0 0.0 -1 ------- null}
r -t 0.790533333333333 -s 0 -d 1 -p tcp -e 1040 -c 1 -i 11 -a 1 -x {0.0 4.0 7 ------- null}
+ -t 0.790533333333333 -s 1 -d 4 -p tcp -e 1040 -c 1 -i 11 -a 1 -x {0.0 4.0 7 ------- null}
- -t 0.790533333333333 -s 1 -d 4 -p tcp -e 1040 -c 1 -i 11 -a 1 -x {0.0 4.0 7 ------- null}
h -t 0.790533333333333 -s 1 -d 4 -p tcp -e 1040 -c 1 -i 11 -a 1 -x {0.0 4.0 -1 ------- null}
r -t 0.794933333333333 -s 1 -d 0 -p ack -e 40 -c 1 -i 16 -a 1 -x {4.0 0.0 5 ------- null}
+ -t 0.794933333333333 -s 0 -d 1 -p tcp -e 1040 -c 1 -i 17 -a 1 -x {0.0 4.0 11 ------- null}
+ -t 0.794933333333333 -s 0 -d 1 -p tcp -e 1040 -c 1 -i 18 -a 1 -x {0.0 4.0 12 ------- null}
r -t 0.800533333333333 -s 1 -d 4 -p tcp -e 1040 -c 1 -i 9 -a 1 -x {0.0 4.0 6 ------- null}
+ -t 0.800533333333333 -s 4 -d 1 -p ack -e 40 -c 1 -i 19 -a 1 -x {4.0 0.0 6 ------- null}
- -t 0.800533333333333 -s 4 -d 1 -p ack -e 40 -c 1 -i 19 -a 1 -x {4.0 0.0 6 ------- null}
h -t 0.800533333333333 -s 4 -d 1 -p ack -e 40 -c 1 -i 19 -a 1 -x {4.0 0.0 -1 ------- null}
- -t 0.808266666666667 -s 0 -d 1 -p tcp -e 1040 -c 1 -i 14 -a 1 -x {0.0 4.0 9 ------- null}
h -t 0.808266666666667 -s 0 -d 1 -p tcp -e 1040 -c 1 -i 14 -a 1 -x {0.0 4.0 -1 ------- null}
r -t 0.8116 -s 4 -d 1 -p ack -e 40 -c 1 -i 19 -a 1 -x {4.0 0.0 6 ------- null}
+ -t 0.8116 -s 1 -d 0 -p ack -e 40 -c 1 -i 19 -a 1 -x {4.0 0.0 6 ------- null}
- -t 0.8116 -s 1 -d 0 -p ack -e 40 -c 1 -i 19 -a 1 -x {4.0 0.0 6 ------- null}
h -t 0.8116 -s 1 -d 0 -p ack -e 40 -c 1 -i 19 -a 1 -x {4.0 0.0 -1 ------- null}
r -t 0.818266666666667 -s 0 -d 1 -p tcp -e 1040 -c 1 -i 12 -a 1 -x {0.0 4.0 8 ------- null}
+ -t 0.818266666666667 -s 1 -d 4 -p tcp -e 1040 -c 1 -i 12 -a 1 -x {0.0 4.0 8 ------- null}
- -t 0.818266666666667 -s 1 -d 4 -p tcp -e 1040 -c 1 -i 12 -a 1 -x {0.0 4.0 8 ------- null}
h -t 0.818266666666667 -s 1 -d 4 -p tcp -e 1040 -c 1 -i 12 -a 1 -x {0.0 4.0 -1 ------- null}
r -t 0.822666666666667 -s 1 -d 0 -p ack -e 40 -c 1 -i 19 -a 1 -x {4.0 0.0 6 ------- null}
+ -t 0.822666666666667 -s 0 -d 1 -p tcp -e 1040 -c 1 -i 20 -a 1 -x {0.0 4.0 13 ------- null}
+ -t 0.822666666666667 -s 0 -d 1 -p tcp -e 1040 -c 1 -i 21 -a 1 -x {0.0 4.0 14 ------- null}
r -t 0.828266666666667 -s 1 -d 4 -p tcp -e 1040 -c 1 -i 11 -a 1 -x {0.0 4.0 7 ------- null}
+ -t 0.828266666666667 -s 4 -d 1 -p ack -e 40 -c 1 -i 22 -a 1 -x {4.0 0.0 7 ------- null}
- -t 0.828266666666667 -s 4 -d 1 -p ack -e 40 -c 1 -i 22 -a 1 -x {4.0 0.0 7 ------- null}
h -t 0.828266666666667 -s 4 -d 1 -p ack -e 40 -c 1 -i 22 -a 1 -x {4.0 0.0 -1 ------- null}
- -t 0.836 -s 0 -d 1 -p tcp -e 1040 -c 1 -i 15 -a 1 -x {0.0 4.0 10 ------- null}
h -t 0.836 -s 0 -d 1 -p tcp -e 1040 -c 1 -i 15 -a 1 -x {0.0 4.0 -1 ------- null}
r -t 0.839333333333333 -s 4 -d 1 -p ack -e 40 -c 1 -i 22 -a 1 -x {4.0 0.0 7 ------- null}
+ -t 0.839333333333333 -s 1 -d 0 -p ack -e 40 -c 1 -i 22 -a 1 -x {4.0 0.0 7 ------- null}
- -t 0.839333333333333 -s 1 -d 0 -p ack -e 40 -c 1 -i 22 -a 1 -x {4.0 0.0 7 ------- null}
h -t 0.839333333333333 -s 1 -d 0 -p ack -e 40 -c 1 -i 22 -a 1 -x {4.0 0.0 -1 ------- null}
r -t 0.846 -s 0 -d 1 -p tcp -e 1040 -c 1 -i 14 -a 1 -x {0.0 4.0 9 ------- null}
+ -t 0.846 -s 1 -d 4 -p tcp -e 1040 -c 1 -i 14 -a 1 -x {0.0 4.0 9 ------- null}
- -t 0.846 -s 1 -d 4 -p tcp -e 1040 -c 1 -i 14 -a 1 -x {0.0 4.0 9 ------- null}
h -t 0.846 -s 1 -d 4 -p tcp -e 1040 -c 1 -i 14 -a 1 -x {0.0 4.0 -1 ------- null}
r -t 0.8504 -s 1 -d 0 -p ack -e 40 -c 1 -i 22 -a 1 -x {4.0 0.0 7 ------- null}
+ -t 0.8504 -s 0 -d 1 -p tcp -e 1040 -c 1 -i 23 -a 1 -x {0.0 4.0 15 ------- null}
+ -t 0.8504 -s 0 -d 1 -p tcp -e 1040 -c 1 -i 24 -a 1 -x {0.0 4.0 16 ------- null}
r -t 0.856 -s 1 -d 4 -p tcp -e 1040 -c 1 -i 12 -a 1 -x {0.0 4.0 8 ------- null}
+ -t 0.856 -s 4 -d 1 -p ack -e 40 -c 1 -i 25 -a 1 -x {4.0 0.0 8 ------- null}
- -t 0.856 -s 4 -d 1 -p ack -e 40 -c 1 -i 25 -a 1 -x {4.0 0.0 8 ------- null}
h -t 0.856 -s 4 -d 1 -p ack -e 40 -c 1 -i 25 -a 1 -x {4.0 0.0 -1 ------- null}
- -t 0.863733333333334 -s 0 -d 1 -p tcp -e 1040 -c 1 -i 17 -a 1 -x {0.0 4.0 11 ------- null}
h -t 0.863733333333334 -s 0 -d 1 -p tcp -e 1040 -c 1 -i 17 -a 1 -x {0.0 4.0 -1 ------- null}
r -t 0.867066666666667 -s 4 -d 1 -p ack -e 40 -c 1 -i 25 -a 1 -x {4.0 0.0 8 ------- null}
+ -t 0.867066666666667 -s 1 -d 0 -p ack -e 40 -c 1 -i 25 -a 1 -x {4.0 0.0 8 ------- null}
- -t 0.867066666666667 -s 1 -d 0 -p ack -e 40 -c 1 -i 25 -a 1 -x {4.0 0.0 8 ------- null}
h -t 0.867066666666667 -s 1 -d 0 -p ack -e 40 -c 1 -i 25 -a 1 -x {4.0 0.0 -1 ------- null}
r -t 0.873733333333334 -s 0 -d 1 -p tcp -e 1040 -c 1 -i 15 -a 1 -x {0.0 4.0 10 ------- null}
+ -t 0.873733333333334 -s 1 -d 4 -p tcp -e 1040 -c 1 -i 15 -a 1 -x {0.0 4.0 10 ------- null}
- -t 0.873733333333334 -s 1 -d 4 -p tcp -e 1040 -c 1 -i 15 -a 1 -x {0.0 4.0 10 ------- null}
h -t 0.873733333333334 -s 1 -d 4 -p tcp -e 1040 -c 1 -i 15 -a 1 -x {0.0 4.0 -1 ------- null}
r -t 0.878133333333333 -s 1 -d 0 -p ack -e 40 -c 1 -i 25 -a 1 -x {4.0 0.0 8 ------- null}
+ -t 0.878133333333333 -s 0 -d 1 -p tcp -e 1040 -c 1 -i 26 -a 1 -x {0.0 4.0 17 ------- null}
+ -t 0.878133333333333 -s 0 -d 1 -p tcp -e 1040 -c 1 -i 27 -a 1 -x {0.0 4.0 18 ------- null}
r -t 0.883733333333333 -s 1 -d 4 -p tcp -e 1040 -c 1 -i 14 -a 1 -x {0.0 4.0 9 ------- null}
+ -t 0.883733333333333 -s 4 -d 1 -p ack -e 40 -c 1 -i 28 -a 1 -x {4.0 0.0 9 ------- null}
- -t 0.883733333333333 -s 4 -d 1 -p ack -e 40 -c 1 -i 28 -a 1 -x {4.0 0.0 9 ------- null}
h -t 0.883733333333333 -s 4 -d 1 -p ack -e 40 -c 1 -i 28 -a 1 -x {4.0 0.0 -1 ------- null}
- -t 0.891466666666667 -s 0 -d 1 -p tcp -e 1040 -c 1 -i 18 -a 1 -x {0.0 4.0 12 ------- null}
h -t 0.891466666666667 -s 0 -d 1 -p tcp -e 1040 -c 1 -i 18 -a 1 -x {0.0 4.0 -1 ------- null}
r -t 0.8948 -s 4 -d 1 -p ack -e 40 -c 1 -i 28 -a 1 -x {4.0 0.0 9 ------- null}
+ -t 0.8948 -s 1 -d 0 -p ack -e 40 -c 1 -i 28 -a 1 -x {4.0 0.0 9 ------- null}
- -t 0.8948 -s 1 -d 0 -p ack -e 40 -c 1 -i 28 -a 1 -x {4.0 0.0 9 ------- null}
h -t 0.8948 -s 1 -d 0 -p ack -e 40 -c 1 -i 28 -a 1 -x {4.0 0.0 -1 ------- null}
r -t 0.901466666666667 -s 0 -d 1 -p tcp -e 1040 -c 1 -i 17 -a 1 -x {0.0 4.0 11 ------- null}
+ -t 0.901466666666667 -s 1 -d 4 -p tcp -e 1040 -c 1 -i 17 -a 1 -x {0.0 4.0 11 ------- null}
- -t 0.901466666666667 -s 1 -d 4 -p tcp -e 1040 -c 1 -i 17 -a 1 -x {0.0 4.0 11 ------- null}
h -t 0.901466666666667 -s 1 -d 4 -p tcp -e 1040 -c 1 -i 17 -a 1 -x {0.0 4.0 -1 ------- null}
r -t 0.905866666666667 -s 1 -d 0 -p ack -e 40 -c 1 -i 28 -a 1 -x {4.0 0.0 9 ------- null}
+ -t 0.905866666666667 -s 0 -d 1 -p tcp -e 1040 -c 1 -i 29 -a 1 -x {0.0 4.0 19 ------- null}
+ -t 0.905866666666667 -s 0 -d 1 -p tcp -e 1040 -c 1 -i 30 -a 1 -x {0.0 4.0 20 ------- null}
r -t 0.911466666666667 -s 1 -d 4 -p tcp -e 1040 -c 1 -i 15 -a 1 -x {0.0 4.0 10 ------- null}
+ -t 0.911466666666667 -s 4 -d 1 -p ack -e 40 -c 1 -i 31 -a 1 -x {4.0 0.0 10 ------- null}
- -t 0.911466666666667 -s 4 -d 1 -p ack -e 40 -c 1 -i 31 -a 1 -x {4.0 0.0 10 ------- null}
h -t 0.911466666666667 -s 4 -d 1 -p ack -e 40 -c 1 -i 31 -a 1 -x {4.0 0.0 -1 ------- null}
- -t 0.9192 -s 0 -d 1 -p tcp -e 1040 -c 1 -i 20 -a 1 -x {0.0 4.0 13 ------- null}
h -t 0.9192 -s 0 -d 1 -p tcp -e 1040 -c 1 -i 20 -a 1 -x {0.0 4.0 -1 ------- null}
r -t 0.922533333333334 -s 4 -d 1 -p ack -e 40 -c 1 -i 31 -a 1 -x {4.0 0.0 10 ------- null}
+ -t 0.922533333333334 -s 1 -d 0 -p ack -e 40 -c 1 -i 31 -a 1 -x {4.0 0.0 10 ------- null}
- -t 0.922533333333334 -s 1 -d 0 -p ack -e 40 -c 1 -i 31 -a 1 -x {4.0 0.0 10 ------- null}
h -t 0.922533333333334 -s 1 -d 0 -p ack -e 40 -c 1 -i 31 -a 1 -x {4.0 0.0 -1 ------- null}
r -t 0.9292 -s 0 -d 1 -p tcp -e 1040 -c 1 -i 18 -a 1 -x {0.0 4.0 12 ------- null}
+ -t 0.9292 -s 1 -d 4 -p tcp -e 1040 -c 1 -i 18 -a 1 -x {0.0 4.0 12 ------- null}
- -t 0.9292 -s 1 -d 4 -p tcp -e 1040 -c 1 -i 18 -a 1 -x {0.0 4.0 12 ------- null}
h -t 0.9292 -s 1 -d 4 -p tcp -e 1040 -c 1 -i 18 -a 1 -x {0.0 4.0 -1 ------- null}
r -t 0.9336 -s 1 -d 0 -p ack -e 40 -c 1 -i 31 -a 1 -x {4.0 0.0 10 ------- null}
+ -t 0.9336 -s 0 -d 1 -p tcp -e 1040 -c 1 -i 32 -a 1 -x {0.0 4.0 21 ------- null}
+ -t 0.9336 -s 0 -d 1 -p tcp -e 1040 -c 1 -i 33 -a 1 -x {0.0 4.0 22 ------- null}
r -t 0.9392 -s 1 -d 4 -p tcp -e 1040 -c 1 -i 17 -a 1 -x {0.0 4.0 11 ------- null}
+ -t 0.9392 -s 4 -d 1 -p ack -e 40 -c 1 -i 34 -a 1 -x {4.0 0.0 11 ------- null}
- -t 0.9392 -s 4 -d 1 -p ack -e 40 -c 1 -i 34 -a 1 -x {4.0 0.0 11 ------- null}
h -t 0.9392 -s 4 -d 1 -p ack -e 40 -c 1 -i 34 -a 1 -x {4.0 0.0 -1 ------- null}
- -t 0.946933333333334 -s 0 -d 1 -p tcp -e 1040 -c 1 -i 21 -a 1 -x {0.0 4.0 14 ------- null}
h -t 0.946933333333334 -s 0 -d 1 -p tcp -e 1040 -c 1 -i 21 -a 1 -x {0.0 4.0 -1 ------- null}
r -t 0.950266666666667 -s 4 -d 1 -p ack -e 40 -c 1 -i 34 -a 1 -x {4.0 0.0 11 ------- null}
+ -t 0.950266666666667 -s 1 -d 0 -p ack -e 40 -c 1 -i 34 -a 1 -x {4.0 0.0 11 ------- null}
- -t 0.950266666666667 -s 1 -d 0 -p ack -e 40 -c 1 -i 34 -a 1 -x {4.0 0.0 11 ------- null}
h -t 0.950266666666667 -s 1 -d 0 -p ack -e 40 -c 1 -i 34 -a 1 -x {4.0 0.0 -1 ------- null}
r -t 0.956933333333334 -s 0 -d 1 -p tcp -e 1040 -c 1 -i 20 -a 1 -x {0.0 4.0 13 ------- null}
+ -t 0.956933333333334 -s 1 -d 4 -p tcp -e 1040 -c 1 -i 20 -a 1 -x {0.0 4.0 13 ------- null}
- -t 0.956933333333334 -s 1 -d 4 -p tcp -e 1040 -c 1 -i 20 -a 1 -x {0.0 4.0 13 ------- null}
h -t 0.956933333333334 -s 1 -d 4 -p tcp -e 1040 -c 1 -i 20 -a 1 -x {0.0 4.0 -1 ------- null}
r -t 0.961333333333334 -s 1 -d 0 -p ack -e 40 -c 1 -i 34 -a 1 -x {4.0 0.0 11 ------- null}
+ -t 0.961333333333334 -s 0 -d 1 -p tcp -e 1040 -c 1 -i 35 -a 1 -x {0.0 4.0 23 ------- null}
+ -t 0.961333333333334 -s 0 -d 1 -p tcp -e 1040 -c 1 -i 36 -a 1 -x {0.0 4.0 24 ------- null}
r -t 0.966933333333334 -s 1 -d 4 -p tcp -e 1040 -c 1 -i 18 -a 1 -x {0.0 4.0 12 ------- null}
+ -t 0.966933333333334 -s 4 -d 1 -p ack -e 40 -c 1 -i 37 -a 1 -x {4.0 0.0 12 ------- null}
- -t 0.966933333333334 -s 4 -d 1 -p ack -e 40 -c 1 -i 37 -a 1 -x {4.0 0.0 12 ------- null}
h -t 0.966933333333334 -s 4 -d 1 -p ack -e 40 -c 1 -i 37 -a 1 -x {4.0 0.0 -1 ------- null}
- -t 0.974666666666667 -s 0 -d 1 -p tcp -e 1040 -c 1 -i 23 -a 1 -x {0.0 4.0 15 ------- null}
h -t 0.974666666666667 -s 0 -d 1 -p tcp -e 1040 -c 1 -i 23 -a 1 -x {0.0 4.0 -1 ------- null}
r -t 0.978 -s 4 -d 1 -p ack -e 40 -c 1 -i 37 -a 1 -x {4.0 0.0 12 ------- null}
+ -t 0.978 -s 1 -d 0 -p ack -e 40 -c 1 -i 37 -a 1 -x {4.0 0.0 12 ------- null}
- -t 0.978 -s 1 -d 0 -p ack -e 40 -c 1 -i 37 -a 1 -x {4.0 0.0 12 ------- null}
h -t 0.978 -s 1 -d 0 -p ack -e 40 -c 1 -i 37 -a 1 -x {4.0 0.0 -1 ------- null}
r -t 0.984666666666667 -s 0 -d 1 -p tcp -e 1040 -c 1 -i 21 -a 1 -x {0.0 4.0 14 ------- null}
+ -t 0.984666666666667 -s 1 -d 4 -p tcp -e 1040 -c 1 -i 21 -a 1 -x {0.0 4.0 14 ------- null}
- -t 0.984666666666667 -s 1 -d 4 -p tcp -e 1040 -c 1 -i 21 -a 1 -x {0.0 4.0 14 ------- null}
h -t 0.984666666666667 -s 1 -d 4 -p tcp -e 1040 -c 1 -i 21 -a 1 -x {0.0 4.0 -1 ------- null}
r -t 0.989066666666667 -s 1 -d 0 -p ack -e 40 -c 1 -i 37 -a 1 -x {4.0 0.0 12 ------- null}
+ -t 0.989066666666667 -s 0 -d 1 -p tcp -e 1040 -c 1 -i 38 -a 1 -x {0.0 4.0 25 ------- null}
+ -t 0.989066666666667 -s 0 -d 1 -p tcp -e 1040 -c 1 -i 39 -a 1 -x {0.0 4.0 26 ------- null}
r -t 0.994666666666667 -s 1 -d 4 -p tcp -e 1040 -c 1 -i 20 -a 1 -x {0.0 4.0 13 ------- null}
+ -t 0.994666666666667 -s 4 -d 1 -p ack -e 40 -c 1 -i 40 -a 1 -x {4.0 0.0 13 ------- null}
- -t 0.994666666666667 -s 4 -d 1 -p ack -e 40 -c 1 -i 40 -a 1 -x {4.0 0.0 13 ------- null}
h -t 0.994666666666667 -s 4 -d 1 -p ack -e 40 -c 1 -i 40 -a 1 -x {4.0 0.0 -1 ------- null}
- -t 1.0024 -s 0 -d 1 -p tcp -e 1040 -c 1 -i 24 -a 1 -x {0.0 4.0 16 ------- null}
h -t 1.0024 -s 0 -d 1 -p tcp -e 1040 -c 1 -i 24 -a 1 -x {0.0 4.0 -1 ------- null}
r -t 1.00573333333333 -s 4 -d 1 -p ack -e 40 -c 1 -i 40 -a 1 -x {4.0 0.0 13 ------- null}
+ -t 1.00573333333333 -s 1 -d 0 -p ack -e 40 -c 1 -i 40 -a 1 -x {4.0 0.0 13 ------- null}
- -t 1.00573333333333 -s 1 -d 0 -p ack -e 40 -c 1 -i 40 -a 1 -x {4.0 0.0 13 ------- null}
h -t 1.00573333333333 -s 1 -d 0 -p ack -e 40 -c 1 -i 40 -a 1 -x {4.0 0.0 -1 ------- null}
r -t 1.0124 -s 0 -d 1 -p tcp -e 1040 -c 1 -i 23 -a 1 -x {0.0 4.0 15 ------- null}
+ -t 1.0124 -s 1 -d 4 -p tcp -e 1040 -c 1 -i 23 -a 1 -x {0.0 4.0 15 ------- null}
- -t 1.0124 -s 1 -d 4 -p tcp -e 1040 -c 1 -i 23 -a 1 -x {0.0 4.0 15 ------- null}
h -t 1.0124 -s 1 -d 4 -p tcp -e 1040 -c 1 -i 23 -a 1 -x {0.0 4.0 -1 ------- null}
r -t 1.0168 -s 1 -d 0 -p ack -e 40 -c 1 -i 40 -a 1 -x {4.0 0.0 13 ------- null}
+ -t 1.0168 -s 0 -d 1 -p tcp -e 1040 -c 1 -i 41 -a 1 -x {0.0 4.0 27 ------- null}
+ -t 1.0168 -s 0 -d 1 -p tcp -e 1040 -c 1 -i 42 -a 1 -x {0.0 4.0 28 ------- null}
r -t 1.0224 -s 1 -d 4 -p tcp -e 1040 -c 1 -i 21 -a 1 -x {0.0 4.0 14 ------- null}
+ -t 1.0224 -s 4 -d 1 -p ack -e 40 -c 1 -i 43 -a 1 -x {4.0 0.0 14 ------- null}
- -t 1.0224 -s 4 -d 1 -p ack -e 40 -c 1 -i 43 -a 1 -x {4.0 0.0 14 ------- null}
h -t 1.0224 -s 4 -d 1 -p ack -e 40 -c 1 -i 43 -a 1 -x {4.0 0.0 -1 ------- null}
- -t 1.03013333333333 -s 0 -d 1 -p tcp -e 1040 -c 1 -i 26 -a 1 -x {0.0 4.0 17 ------- null}
h -t 1.03013333333333 -s 0 -d 1 -p tcp -e 1040 -c 1 -i 26 -a 1 -x {0.0 4.0 -1 ------- null}
r -t 1.03346666666667 -s 4 -d 1 -p ack -e 40 -c 1 -i 43 -a 1 -x {4.0 0.0 14 ------- null}
+ -t 1.03346666666667 -s 1 -d 0 -p ack -e 40 -c 1 -i 43 -a 1 -x {4.0 0.0 14 ------- null}
- -t 1.03346666666667 -s 1 -d 0 -p ack -e 40 -c 1 -i 43 -a 1 -x {4.0 0.0 14 ------- null}
h -t 1.03346666666667 -s 1 -d 0 -p ack -e 40 -c 1 -i 43 -a 1 -x {4.0 0.0 -1 ------- null}
r -t 1.04013333333333 -s 0 -d 1 -p tcp -e 1040 -c 1 -i 24 -a 1 -x {0.0 4.0 16 ------- null}
+ -t 1.04013333333333 -s 1 -d 4 -p tcp -e 1040 -c 1 -i 24 -a 1 -x {0.0 4.0 16 ------- null}
- -t 1.04013333333333 -s 1 -d 4 -p tcp -e 1040 -c 1 -i 24 -a 1 -x {0.0 4.0 16 ------- null}
h -t 1.04013333333333 -s 1 -d 4 -p tcp -e 1040 -c 1 -i 24 -a 1 -x {0.0 4.0 -1 ------- null}
r -t 1.04453333333333 -s 1 -d 0 -p ack -e 40 -c 1 -i 43 -a 1 -x {4.0 0.0 14 ------- null}
+ -t 1.04453333333333 -s 0 -d 1 -p tcp -e 1040 -c 1 -i 44 -a 1 -x {0.0 4.0 29 ------- null}
+ -t 1.04453333333333 -s 0 -d 1 -p tcp -e 1040 -c 1 -i 45 -a 1 -x {0.0 4.0 30 ------- null}
r -t 1.05013333333333 -s 1 -d 4 -p tcp -e 1040 -c 1 -i 23 -a 1 -x {0.0 4.0 15 ------- null}
+ -t 1.05013333333333 -s 4 -d 1 -p ack -e 40 -c 1 -i 46 -a 1 -x {4.0 0.0 15 ------- null}
- -t 1.05013333333333 -s 4 -d 1 -p ack -e 40 -c 1 -i 46 -a 1 -x {4.0 0.0 15 ------- null}
h -t 1.05013333333333 -s 4 -d 1 -p ack -e 40 -c 1 -i 46 -a 1 -x {4.0 0.0 -1 ------- null}
- -t 1.05786666666667 -s 0 -d 1 -p tcp -e 1040 -c 1 -i 27 -a 1 -x {0.0 4.0 18 ------- null}
h -t 1.05786666666667 -s 0 -d 1 -p tcp -e 1040 -c 1 -i 27 -a 1 -x {0.0 4.0 -1 ------- null}
r -t 1.0612 -s 4 -d 1 -p ack -e 40 -c 1 -i 46 -a 1 -x {4.0 0.0 15 ------- null}
+ -t 1.0612 -s 1 -d 0 -p ack -e 40 -c 1 -i 46 -a 1 -x {4.0 0.0 15 ------- null}
- -t 1.0612 -s 1 -d 0 -p ack -e 40 -c 1 -i 46 -a 1 -x {4.0 0.0 15 ------- null}
h -t 1.0612 -s 1 -d 0 -p ack -e 40 -c 1 -i 46 -a 1 -x {4.0 0.0 -1 ------- null}
r -t 1.06786666666667 -s 0 -d 1 -p tcp -e 1040 -c 1 -i 26 -a 1 -x {0.0 4.0 17 ------- null}
+ -t 1.06786666666667 -s 1 -d 4 -p tcp -e 1040 -c 1 -i 26 -a 1 -x {0.0 4.0 17 ------- null}
- -t 1.06786666666667 -s 1 -d 4 -p tcp -e 1040 -c 1 -i 26 -a 1 -x {0.0 4.0 17 ------- null}
h -t 1.06786666666667 -s 1 -d 4 -p tcp -e 1040 -c 1 -i 26 -a 1 -x {0.0 4.0 -1 ------- null}
r -t 1.07226666666667 -s 1 -d 0 -p ack -e 40 -c 1 -i 46 -a 1 -x {4.0 0.0 15 ------- null}
+ -t 1.07226666666667 -s 0 -d 1 -p tcp -e 1040 -c 1 -i 47 -a 1 -x {0.0 4.0 31 ------- null}
+ -t 1.07226666666667 -s 0 -d 1 -p tcp -e 1040 -c 1 -i 48 -a 1 -x {0.0 4.0 32 ------- null}
r -t 1.07786666666667 -s 1 -d 4 -p tcp -e 1040 -c 1 -i 24 -a 1 -x {0.0 4.0 16 ------- null}
+ -t 1.07786666666667 -s 4 -d 1 -p ack -e 40 -c 1 -i 49 -a 1 -x {4.0 0.0 16 ------- null}
- -t 1.07786666666667 -s 4 -d 1 -p ack -e 40 -c 1 -i 49 -a 1 -x {4.0 0.0 16 ------- null}
h -t 1.07786666666667 -s 4 -d 1 -p ack -e 40 -c 1 -i 49 -a 1 -x {4.0 0.0 -1 ------- null}
- -t 1.0856 -s 0 -d 1 -p tcp -e 1040 -c 1 -i 29 -a 1 -x {0.0 4.0 19 ------- null}
h -t 1.0856 -s 0 -d 1 -p tcp -e 1040 -c 1 -i 29 -a 1 -x {0.0 4.0 -1 ------- null}
r -t 1.08893333333333 -s 4 -d 1 -p ack -e 40 -c 1 -i 49 -a 1 -x {4.0 0.0 16 ------- null}
+ -t 1.08893333333333 -s 1 -d 0 -p ack -e 40 -c 1 -i 49 -a 1 -x {4.0 0.0 16 ------- null}
- -t 1.08893333333333 -s 1 -d 0 -p ack -e 40 -c 1 -i 49 -a 1 -x {4.0 0.0 16 ------- null}
h -t 1.08893333333333 -s 1 -d 0 -p ack -e 40 -c 1 -i 49 -a 1 -x {4.0 0.0 -1 ------- null}
r -t 1.0956 -s 0 -d 1 -p tcp -e 1040 -c 1 -i 27 -a 1 -x {0.0 4.0 18 ------- null}
+ -t 1.0956 -s 1 -d 4 -p tcp -e 1040 -c 1 -i 27 -a 1 -x {0.0 4.0 18 ------- null}
- -t 1.0956 -s 1 -d 4 -p tcp -e 1040 -c 1 -i 27 -a 1 -x {0.0 4.0 18 ------- null}
h -t 1.0956 -s 1 -d 4 -p tcp -e 1040 -c 1 -i 27 -a 1 -x {0.0 4.0 -1 ------- null}
r -t 1.1 -s 1 -d 0 -p ack -e 40 -c 1 -i 49 -a 1 -x {4.0 0.0 16 ------- null}
+ -t 1.1 -s 0 -d 1 -p tcp -e 1040 -c 1 -i 50 -a 1 -x {0.0 4.0 33 ------- null}
+ -t 1.1 -s 0 -d 1 -p tcp -e 1040 -c 1 -i 51 -a 1 -x {0.0 4.0 34 ------- null}
r -t 1.1056 -s 1 -d 4 -p tcp -e 1040 -c 1 -i 26 -a 1 -x {0.0 4.0 17 ------- null}
+ -t 1.1056 -s 4 -d 1 -p ack -e 40 -c 1 -i 52 -a 1 -x {4.0 0.0 17 ------- null}
- -t 1.1056 -s 4 -d 1 -p ack -e 40 -c 1 -i 52 -a 1 -x {4.0 0.0 17 ------- null}
h -t 1.1056 -s 4 -d 1 -p ack -e 40 -c 1 -i 52 -a 1 -x {4.0 0.0 -1 ------- null}
- -t 1.11333333333333 -s 0 -d 1 -p tcp -e 1040 -c 1 -i 30 -a 1 -x {0.0 4.0 20 ------- null}
h -t 1.11333333333333 -s 0 -d 1 -p tcp -e 1040 -c 1 -i 30 -a 1 -x {0.0 4.0 -1 ------- null}
r -t 1.11666666666667 -s 4 -d 1 -p ack -e 40 -c 1 -i 52 -a 1 -x {4.0 0.0 17 ------- null}
+ -t 1.11666666666667 -s 1 -d 0 -p ack -e 40 -c 1 -i 52 -a 1 -x {4.0 0.0 17 ------- null}
- -t 1.11666666666667 -s 1 -d 0 -p ack -e 40 -c 1 -i 52 -a 1 -x {4.0 0.0 17 ------- null}
h -t 1.11666666666667 -s 1 -d 0 -p ack -e 40 -c 1 -i 52 -a 1 -x {4.0 0.0 -1 ------- null}
r -t 1.12333333333333 -s 0 -d 1 -p tcp -e 1040 -c 1 -i 29 -a 1 -x {0.0 4.0 19 ------- null}
+ -t 1.12333333333333 -s 1 -d 4 -p tcp -e 1040 -c 1 -i 29 -a 1 -x {0.0 4.0 19 ------- null}
- -t 1.12333333333333 -s 1 -d 4 -p tcp -e 1040 -c 1 -i 29 -a 1 -x {0.0 4.0 19 ------- null}
h -t 1.12333333333333 -s 1 -d 4 -p tcp -e 1040 -c 1 -i 29 -a 1 -x {0.0 4.0 -1 ------- null}
r -t 1.12773333333333 -s 1 -d 0 -p ack -e 40 -c 1 -i 52 -a 1 -x {4.0 0.0 17 ------- null}
+ -t 1.12773333333333 -s 0 -d 1 -p tcp -e 1040 -c 1 -i 53 -a 1 -x {0.0 4.0 35 ------- null}
+ -t 1.12773333333333 -s 0 -d 1 -p tcp -e 1040 -c 1 -i 54 -a 1 -x {0.0 4.0 36 ------- null}
r -t 1.13333333333333 -s 1 -d 4 -p tcp -e 1040 -c 1 -i 27 -a 1 -x {0.0 4.0 18 ------- null}
+ -t 1.13333333333333 -s 4 -d 1 -p ack -e 40 -c 1 -i 55 -a 1 -x {4.0 0.0 18 ------- null}
- -t 1.13333333333333 -s 4 -d 1 -p ack -e 40 -c 1 -i 55 -a 1 -x {4.0 0.0 18 ------- null}
h -t 1.13333333333333 -s 4 -d 1 -p ack -e 40 -c 1 -i 55 -a 1 -x {4.0 0.0 -1 ------- null}
- -t 1.14106666666667 -s 0 -d 1 -p tcp -e 1040 -c 1 -i 32 -a 1 -x {0.0 4.0 21 ------- null}
h -t 1.14106666666667 -s 0 -d 1 -p tcp -e 1040 -c 1 -i 32 -a 1 -x {0.0 4.0 -1 ------- null}
r -t 1.1444 -s 4 -d 1 -p ack -e 40 -c 1 -i 55 -a 1 -x {4.0 0.0 18 ------- null}
+ -t 1.1444 -s 1 -d 0 -p ack -e 40 -c 1 -i 55 -a 1 -x {4.0 0.0 18 ------- null}
- -t 1.1444 -s 1 -d 0 -p ack -e 40 -c 1 -i 55 -a 1 -x {4.0 0.0 18 ------- null}
h -t 1.1444 -s 1 -d 0 -p ack -e 40 -c 1 -i 55 -a 1 -x {4.0 0.0 -1 ------- null}
r -t 1.15106666666667 -s 0 -d 1 -p tcp -e 1040 -c 1 -i 30 -a 1 -x {0.0 4.0 20 ------- null}
+ -t 1.15106666666667 -s 1 -d 4 -p tcp -e 1040 -c 1 -i 30 -a 1 -x {0.0 4.0 20 ------- null}
- -t 1.15106666666667 -s 1 -d 4 -p tcp -e 1040 -c 1 -i 30 -a 1 -x {0.0 4.0 20 ------- null}
h -t 1.15106666666667 -s 1 -d 4 -p tcp -e 1040 -c 1 -i 30 -a 1 -x {0.0 4.0 -1 ------- null}
r -t 1.15546666666667 -s 1 -d 0 -p ack -e 40 -c 1 -i 55 -a 1 -x {4.0 0.0 18 ------- null}