+ 1 3 0 cbr 1000 ------- 0 3.0 5.0 0 0
- 1 3 0 cbr 1000 ------- 0 3.0 5.0 0 0
+ 1 3 0 cbr 1000 ------- 0 3.0 5.0 1 1
+ 1 3 0 cbr 48 ------- 0 3.0 5.0 2 2
- 1.0008 3 0 cbr 1000 ------- 0 3.0 5.0 1 1
- 1.0016 3 0 cbr 48 ------- 0 3.0 5.0 2 2
r 1.0058 3 0 cbr 1000 ------- 0 3.0 5.0 0 0
+ 1.0058 0 1 cbr 1000 ------- 0 3.0 5.0 0 0
- 1.0058 0 1 cbr 1000 ------- 0 3.0 5.0 0 0
r 1.0066 3 0 cbr 1000 ------- 0 3.0 5.0 1 1
+ 1.0066 0 1 cbr 1000 ------- 0 3.0 5.0 1 1
- 1.0066 0 1 cbr 1000 ------- 0 3.0 5.0 1 1
r 1.006638 3 0 cbr 48 ------- 0 3.0 5.0 2 2
+ 1.006638 0 1 cbr 48 ------- 0 3.0 5.0 2 2
- 1.0074 0 1 cbr 48 ------- 0 3.0 5.0 2 2
+ 1.008192 3 0 cbr 1000 ------- 0 3.0 5.0 3 3
- 1.008192 3 0 cbr 1000 ------- 0 3.0 5.0 3 3
+ 1.008192 3 0 cbr 1000 ------- 0 3.0 5.0 4 4
+ 1.008192 3 0 cbr 48 ------- 0 3.0 5.0 5 5
- 1.008992 3 0 cbr 1000 ------- 0 3.0 5.0 4 4
- 1.009792 3 0 cbr 48 ------- 0 3.0 5.0 5 5
r 1.0116 0 1 cbr 1000 ------- 0 3.0 5.0 0 0
+ 1.0116 1 5 cbr 1000 ------- 0 3.0 5.0 0 0
- 1.0116 1 5 cbr 1000 ------- 0 3.0 5.0 0 0
r 1.0124 0 1 cbr 1000 ------- 0 3.0 5.0 1 1
+ 1.0124 1 5 cbr 1000 ------- 0 3.0 5.0 1 1
- 1.0124 1 5 cbr 1000 ------- 0 3.0 5.0 1 1
r 1.012438 0 1 cbr 48 ------- 0 3.0 5.0 2 2
+ 1.012438 1 5 cbr 48 ------- 0 3.0 5.0 2 2
- 1.0132 1 5 cbr 48 ------- 0 3.0 5.0 2 2
r 1.013992 3 0 cbr 1000 ------- 0 3.0 5.0 3 3
+ 1.013992 0 1 cbr 1000 ------- 0 3.0 5.0 3 3
- 1.013992 0 1 cbr 1000 ------- 0 3.0 5.0 3 3
r 1.014792 3 0 cbr 1000 ------- 0 3.0 5.0 4 4
+ 1.014792 0 1 cbr 1000 ------- 0 3.0 5.0 4 4
- 1.014792 0 1 cbr 1000 ------- 0 3.0 5.0 4 4
r 1.01483 3 0 cbr 48 ------- 0 3.0 5.0 5 5
+ 1.01483 0 1 cbr 48 ------- 0 3.0 5.0 5 5
- 1.015592 0 1 cbr 48 ------- 0 3.0 5.0 5 5
+ 1.016384 3 0 cbr 1000 ------- 0 3.0 5.0 6 6
- 1.016384 3 0 cbr 1000 ------- 0 3.0 5.0 6 6
+ 1.016384 3 0 cbr 1000 ------- 0 3.0 5.0 7 7
+ 1.016384 3 0 cbr 48 ------- 0 3.0 5.0 8 8
- 1.017184 3 0 cbr 1000 ------- 0 3.0 5.0 7 7
r 1.0174 1 5 cbr 1000 ------- 0 3.0 5.0 0 0
- 1.017984 3 0 cbr 48 ------- 0 3.0 5.0 8 8
r 1.0182 1 5 cbr 1000 ------- 0 3.0 5.0 1 1
r 1.018238 1 5 cbr 48 ------- 0 3.0 5.0 2 2
r 1.019792 0 1 cbr 1000 ------- 0 3.0 5.0 3 3
+ 1.019792 1 5 cbr 1000 ------- 0 3.0 5.0 3 3
- 1.019792 1 5 cbr 1000 ------- 0 3.0 5.0 3 3
r 1.020592 0 1 cbr 1000 ------- 0 3.0 5.0 4 4
+ 1.020592 1 5 cbr 1000 ------- 0 3.0 5.0 4 4
- 1.020592 1 5 cbr 1000 ------- 0 3.0 5.0 4 4
r 1.02063 0 1 cbr 48 ------- 0 3.0 5.0 5 5
+ 1.02063 1 5 cbr 48 ------- 0 3.0 5.0 5 5
- 1.021392 1 5 cbr 48 ------- 0 3.0 5.0 5 5
r 1.022184 3 0 cbr 1000 ------- 0 3.0 5.0 6 6
+ 1.022184 0 1 cbr 1000 ------- 0 3.0 5.0 6 6
- 1.022184 0 1 cbr 1000 ------- 0 3.0 5.0 6 6
r 1.022984 3 0 cbr 1000 ------- 0 3.0 5.0 7 7
+ 1.022984 0 1 cbr 1000 ------- 0 3.0 5.0 7 7
- 1.022984 0 1 cbr 1000 ------- 0 3.0 5.0 7 7
r 1.023022 3 0 cbr 48 ------- 0 3.0 5.0 8 8
+ 1.023022 0 1 cbr 48 ------- 0 3.0 5.0 8 8
- 1.023784 0 1 cbr 48 ------- 0 3.0 5.0 8 8
+ 1.024576 3 0 cbr 1000 ------- 0 3.0 5.0 9 9
- 1.024576 3 0 cbr 1000 ------- 0 3.0 5.0 9 9
+ 1.024576 3 0 cbr 1000 ------- 0 3.0 5.0 10 10
+ 1.024576 3 0 cbr 48 ------- 0 3.0 5.0 11 11
- 1.025376 3 0 cbr 1000 ------- 0 3.0 5.0 10 10
r 1.025592 1 5 cbr 1000 ------- 0 3.0 5.0 3 3
- 1.026176 3 0 cbr 48 ------- 0 3.0 5.0 11 11
r 1.026392 1 5 cbr 1000 ------- 0 3.0 5.0 4 4
r 1.02643 1 5 cbr 48 ------- 0 3.0 5.0 5 5
r 1.027984 0 1 cbr 1000 ------- 0 3.0 5.0 6 6
+ 1.027984 1 5 cbr 1000 ------- 0 3.0 5.0 6 6
- 1.027984 1 5 cbr 1000 ------- 0 3.0 5.0 6 6
r 1.028784 0 1 cbr 1000 ------- 0 3.0 5.0 7 7
+ 1.028784 1 5 cbr 1000 ------- 0 3.0 5.0 7 7
- 1.028784 1 5 cbr 1000 ------- 0 3.0 5.0 7 7
r 1.028822 0 1 cbr 48 ------- 0 3.0 5.0 8 8
+ 1.028822 1 5 cbr 48 ------- 0 3.0 5.0 8 8
- 1.029584 1 5 cbr 48 ------- 0 3.0 5.0 8 8
r 1.030376 3 0 cbr 1000 ------- 0 3.0 5.0 9 9
+ 1.030376 0 1 cbr 1000 ------- 0 3.0 5.0 9 9
- 1.030376 0 1 cbr 1000 ------- 0 3.0 5.0 9 9
r 1.031176 3 0 cbr 1000 ------- 0 3.0 5.0 10 10
+ 1.031176 0 1 cbr 1000 ------- 0 3.0 5.0 10 10
- 1.031176 0 1 cbr 1000 ------- 0 3.0 5.0 10 10
r 1.031214 3 0 cbr 48 ------- 0 3.0 5.0 11 11
+ 1.031214 0 1 cbr 48 ------- 0 3.0 5.0 11 11
- 1.031976 0 1 cbr 48 ------- 0 3.0 5.0 11 11
+ 1.032768 3 0 cbr 1000 ------- 0 3.0 5.0 12 12
- 1.032768 3 0 cbr 1000 ------- 0 3.0 5.0 12 12
+ 1.032768 3 0 cbr 1000 ------- 0 3.0 5.0 13 13
+ 1.032768 3 0 cbr 48 ------- 0 3.0 5.0 14 14
- 1.033568 3 0 cbr 1000 ------- 0 3.0 5.0 13 13
r 1.033784 1 5 cbr 1000 ------- 0 3.0 5.0 6 6
- 1.034368 3 0 cbr 48 ------- 0 3.0 5.0 14 14
r 1.034584 1 5 cbr 1000 ------- 0 3.0 5.0 7 7
r 1.034622 1 5 cbr 48 ------- 0 3.0 5.0 8 8
r 1.036176 0 1 cbr 1000 ------- 0 3.0 5.0 9 9
+ 1.036176 1 5 cbr 1000 ------- 0 3.0 5.0 9 9
- 1.036176 1 5 cbr 1000 ------- 0 3.0 5.0 9 9
r 1.036976 0 1 cbr 1000 ------- 0 3.0 5.0 10 10
+ 1.036976 1 5 cbr 1000 ------- 0 3.0 5.0 10 10
- 1.036976 1 5 cbr 1000 ------- 0 3.0 5.0 10 10
r 1.037014 0 1 cbr 48 ------- 0 3.0 5.0 11 11
+ 1.037014 1 5 cbr 48 ------- 0 3.0 5.0 11 11
- 1.037776 1 5 cbr 48 ------- 0 3.0 5.0 11 11
r 1.038568 3 0 cbr 1000 ------- 0 3.0 5.0 12 12
+ 1.038568 0 1 cbr 1000 ------- 0 3.0 5.0 12 12
- 1.038568 0 1 cbr 1000 ------- 0 3.0 5.0 12 12
r 1.039368 3 0 cbr 1000 ------- 0 3.0 5.0 13 13
+ 1.039368 0 1 cbr 1000 ------- 0 3.0 5.0 13 13
- 1.039368 0 1 cbr 1000 ------- 0 3.0 5.0 13 13
r 1.039406 3 0 cbr 48 ------- 0 3.0 5.0 14 14
+ 1.039406 0 1 cbr 48 ------- 0 3.0 5.0 14 14
- 1.040168 0 1 cbr 48 ------- 0 3.0 5.0 14 14
+ 1.04096 3 0 cbr 1000 ------- 0 3.0 5.0 15 15
- 1.04096 3 0 cbr 1000 ------- 0 3.0 5.0 15 15
+ 1.04096 3 0 cbr 1000 ------- 0 3.0 5.0 16 16
+ 1.04096 3 0 cbr 48 ------- 0 3.0 5.0 17 17
- 1.04176 3 0 cbr 1000 ------- 0 3.0 5.0 16 16
r 1.041976 1 5 cbr 1000 ------- 0 3.0 5.0 9 9
- 1.04256 3 0 cbr 48 ------- 0 3.0 5.0 17 17
r 1.042776 1 5 cbr 1000 ------- 0 3.0 5.0 10 10
r 1.042814 1 5 cbr 48 ------- 0 3.0 5.0 11 11
r 1.044368 0 1 cbr 1000 ------- 0 3.0 5.0 12 12
+ 1.044368 1 5 cbr 1000 ------- 0 3.0 5.0 12 12
- 1.044368 1 5 cbr 1000 ------- 0 3.0 5.0 12 12
r 1.045168 0 1 cbr 1000 ------- 0 3.0 5.0 13 13
+ 1.045168 1 5 cbr 1000 ------- 0 3.0 5.0 13 13
- 1.045168 1 5 cbr 1000 ------- 0 3.0 5.0 13 13
r 1.045206 0 1 cbr 48 ------- 0 3.0 5.0 14 14
+ 1.045206 1 5 cbr 48 ------- 0 3.0 5.0 14 14
- 1.045968 1 5 cbr 48 ------- 0 3.0 5.0 14 14
r 1.04676 3 0 cbr 1000 ------- 0 3.0 5.0 15 15
+ 1.04676 0 1 cbr 1000 ------- 0 3.0 5.0 15 15
- 1.04676 0 1 cbr 1000 ------- 0 3.0 5.0 15 15
r 1.04756 3 0 cbr 1000 ------- 0 3.0 5.0 16 16
+ 1.04756 0 1 cbr 1000 ------- 0 3.0 5.0 16 16
- 1.04756 0 1 cbr 1000 ------- 0 3.0 5.0 16 16
r 1.047598 3 0 cbr 48 ------- 0 3.0 5.0 17 17
+ 1.047598 0 1 cbr 48 ------- 0 3.0 5.0 17 17
- 1.04836 0 1 cbr 48 ------- 0 3.0 5.0 17 17
+ 1.049152 3 0 cbr 1000 ------- 0 3.0 5.0 18 18
- 1.049152 3 0 cbr 1000 ------- 0 3.0 5.0 18 18
+ 1.049152 3 0 cbr 1000 ------- 0 3.0 5.0 19 19
+ 1.049152 3 0 cbr 48 ------- 0 3.0 5.0 20 20
- 1.049952 3 0 cbr 1000 ------- 0 3.0 5.0 19 19
r 1.050168 1 5 cbr 1000 ------- 0 3.0 5.0 12 12
- 1.050752 3 0 cbr 48 ------- 0 3.0 5.0 20 20
r 1.050968 1 5 cbr 1000 ------- 0 3.0 5.0 13 13
r 1.051006 1 5 cbr 48 ------- 0 3.0 5.0 14 14
r 1.05256 0 1 cbr 1000 ------- 0 3.0 5.0 15 15
+ 1.05256 1 5 cbr 1000 ------- 0 3.0 5.0 15 15
- 1.05256 1 5 cbr 1000 ------- 0 3.0 5.0 15 15
r 1.05336 0 1 cbr 1000 ------- 0 3.0 5.0 16 16
+ 1.05336 1 5 cbr 1000 ------- 0 3.0 5.0 16 16
- 1.05336 1 5 cbr 1000 ------- 0 3.0 5.0 16 16
r 1.053398 0 1 cbr 48 ------- 0 3.0 5.0 17 17
+ 1.053398 1 5 cbr 48 ------- 0 3.0 5.0 17 17
- 1.05416 1 5 cbr 48 ------- 0 3.0 5.0 17 17
r 1.054952 3 0 cbr 1000 ------- 0 3.0 5.0 18 18
+ 1.054952 0 1 cbr 1000 ------- 0 3.0 5.0 18 18
- 1.054952 0 1 cbr 1000 ------- 0 3.0 5.0 18 18
r 1.055752 3 0 cbr 1000 ------- 0 3.0 5.0 19 19
+ 1.055752 0 1 cbr 1000 ------- 0 3.0 5.0 19 19
- 1.055752 0 1 cbr 1000 ------- 0 3.0 5.0 19 19
r 1.05579 3 0 cbr 48 ------- 0 3.0 5.0 20 20
+ 1.05579 0 1 cbr 48 ------- 0 3.0 5.0 20 20
- 1.056552 0 1 cbr 48 ------- 0 3.0 5.0 20 20
+ 1.057344 3 0 cbr 1000 ------- 0 3.0 5.0 21 21
- 1.057344 3 0 cbr 1000 ------- 0 3.0 5.0 21 21
+ 1.057344 3 0 cbr 1000 ------- 0 3.0 5.0 22 22
+ 1.057344 3 0 cbr 48 ------- 0 3.0 5.0 23 23
- 1.058144 3 0 cbr 1000 ------- 0 3.0 5.0 22 22
r 1.05836 1 5 cbr 1000 ------- 0 3.0 5.0 15 15
- 1.058944 3 0 cbr 48 ------- 0 3.0 5.0 23 23
r 1.05916 1 5 cbr 1000 ------- 0 3.0 5.0 16 16
r 1.059198 1 5 cbr 48 ------- 0 3.0 5.0 17 17
r 1.060752 0 1 cbr 1000 ------- 0 3.0 5.0 18 18
+ 1.060752 1 5 cbr 1000 ------- 0 3.0 5.0 18 18
- 1.060752 1 5 cbr 1000 ------- 0 3.0 5.0 18 18
r 1.061552 0 1 cbr 1000 ------- 0 3.0 5.0 19 19
+ 1.061552 1 5 cbr 1000 ------- 0 3.0 5.0 19 19
- 1.061552 1 5 cbr 1000 ------- 0 3.0 5.0 19 19
r 1.06159 0 1 cbr 48 ------- 0 3.0 5.0 20 20
+ 1.06159 1 5 cbr 48 ------- 0 3.0 5.0 20 20
- 1.062352 1 5 cbr 48 ------- 0 3.0 5.0 20 20
r 1.063144 3 0 cbr 1000 ------- 0 3.0 5.0 21 21
+ 1.063144 0 1 cbr 1000 ------- 0 3.0 5.0 21 21
- 1.063144 0 1 cbr 1000 ------- 0 3.0 5.0 21 21
r 1.063944 3 0 cbr 1000 ------- 0 3.0 5.0 22 22
+ 1.063944 0 1 cbr 1000 ------- 0 3.0 5.0 22 22
- 1.063944 0 1 cbr 1000 ------- 0 3.0 5.0 22 22
r 1.063982 3 0 cbr 48 ------- 0 3.0 5.0 23 23
+ 1.063982 0 1 cbr 48 ------- 0 3.0 5.0 23 23
- 1.064744 0 1 cbr 48 ------- 0 3.0 5.0 23 23
+ 1.065536 3 0 cbr 1000 ------- 0 3.0 5.0 24 24
- 1.065536 3 0 cbr 1000 ------- 0 3.0 5.0 24 24
+ 1.065536 3 0 cbr 1000 ------- 0 3.0 5.0 25 25
+ 1.065536 3 0 cbr 48 ------- 0 3.0 5.0 26 26
- 1.066336 3 0 cbr 1000 ------- 0 3.0 5.0 25 25
r 1.066552 1 5 cbr 1000 ------- 0 3.0 5.0 18 18
- 1.067136 3 0 cbr 48 ------- 0 3.0 5.0 26 26
r 1.067352 1 5 cbr 1000 ------- 0 3.0 5.0 19 19
r 1.06739 1 5 cbr 48 ------- 0 3.0 5.0 20 20
r 1.068944 0 1 cbr 1000 ------- 0 3.0 5.0 21 21
+ 1.068944 1 5 cbr 1000 ------- 0 3.0 5.0 21 21
- 1.068944 1 5 cbr 1000 ------- 0 3.0 5.0 21 21
r 1.069744 0 1 cbr 1000 ------- 0 3.0 5.0 22 22
+ 1.069744 1 5 cbr 1000 ------- 0 3.0 5.0 22 22
- 1.069744 1 5 cbr 1000 ------- 0 3.0 5.0 22 22
r 1.069782 0 1 cbr 48 ------- 0 3.0 5.0 23 23
+ 1.069782 1 5 cbr 48 ------- 0 3.0 5.0 23 23
- 1.070544 1 5 cbr 48 ------- 0 3.0 5.0 23 23
r 1.071336 3 0 cbr 1000 ------- 0 3.0 5.0 24 24
+ 1.071336 0 1 cbr 1000 ------- 0 3.0 5.0 24 24
- 1.071336 0 1 cbr 1000 ------- 0 3.0 5.0 24 24
r 1.072136 3 0 cbr 1000 ------- 0 3.0 5.0 25 25
+ 1.072136 0 1 cbr 1000 ------- 0 3.0 5.0 25 25
- 1.072136 0 1 cbr 1000 ------- 0 3.0 5.0 25 25
r 1.072174 3 0 cbr 48 ------- 0 3.0 5.0 26 26
+ 1.072174 0 1 cbr 48 ------- 0 3.0 5.0 26 26
- 1.072936 0 1 cbr 48 ------- 0 3.0 5.0 26 26
+ 1.073728 3 0 cbr 1000 ------- 0 3.0 5.0 27 27
- 1.073728 3 0 cbr 1000 ------- 0 3.0 5.0 27 27
+ 1.073728 3 0 cbr 1000 ------- 0 3.0 5.0 28 28
+ 1.073728 3 0 cbr 48 ------- 0 3.0 5.0 29 29
- 1.074528 3 0 cbr 1000 ------- 0 3.0 5.0 28 28
r 1.074744 1 5 cbr 1000 ------- 0 3.0 5.0 21 21
- 1.075328 3 0 cbr 48 ------- 0 3.0 5.0 29 29
r 1.075544 1 5 cbr 1000 ------- 0 3.0 5.0 22 22
r 1.075582 1 5 cbr 48 ------- 0 3.0 5.0 23 23
r 1.077136 0 1 cbr 1000 ------- 0 3.0 5.0 24 24
+ 1.077136 1 5 cbr 1000 ------- 0 3.0 5.0 24 24
- 1.077136 1 5 cbr 1000 ------- 0 3.0 5.0 24 24
r 1.077936 0 1 cbr 1000 ------- 0 3.0 5.0 25 25
+ 1.077936 1 5 cbr 1000 ------- 0 3.0 5.0 25 25
- 1.077936 1 5 cbr 1000 ------- 0 3.0 5.0 25 25
r 1.077974 0 1 cbr 48 ------- 0 3.0 5.0 26 26
+ 1.077974 1 5 cbr 48 ------- 0 3.0 5.0 26 26
- 1.078736 1 5 cbr 48 ------- 0 3.0 5.0 26 26
r 1.079528 3 0 cbr 1000 ------- 0 3.0 5.0 27 27
+ 1.079528 0 1 cbr 1000 ------- 0 3.0 5.0 27 27
- 1.079528 0 1 cbr 1000 ------- 0 3.0 5.0 27 27
r 1.080328 3 0 cbr 1000 ------- 0 3.0 5.0 28 28
+ 1.080328 0 1 cbr 1000 ------- 0 3.0 5.0 28 28
- 1.080328 0 1 cbr 1000 ------- 0 3.0 5.0 28 28
r 1.080366 3 0 cbr 48 ------- 0 3.0 5.0 29 29
+ 1.080366 0 1 cbr 48 ------- 0 3.0 5.0 29 29
- 1.081128 0 1 cbr 48 ------- 0 3.0 5.0 29 29
+ 1.08192 3 0 cbr 1000 ------- 0 3.0 5.0 30 30
- 1.08192 3 0 cbr 1000 ------- 0 3.0 5.0 30 30
+ 1.08192 3 0 cbr 1000 ------- 0 3.0 5.0 31 31
+ 1.08192 3 0 cbr 48 ------- 0 3.0 5.0 32 32
- 1.08272 3 0 cbr 1000 ------- 0 3.0 5.0 31 31
r 1.082936 1 5 cbr 1000 ------- 0 3.0 5.0 24 24
- 1.08352 3 0 cbr 48 ------- 0 3.0 5.0 32 32
r 1.083736 1 5 cbr 1000 ------- 0 3.0 5.0 25 25
r 1.083774 1 5 cbr 48 ------- 0 3.0 5.0 26 26
r 1.085328 0 1 cbr 1000 ------- 0 3.0 5.0 27 27
+ 1.085328 1 5 cbr 1000 ------- 0 3.0 5.0 27 27
- 1.085328 1 5 cbr 1000 ------- 0 3.0 5.0 27 27
r 1.086128 0 1 cbr 1000 ------- 0 3.0 5.0 28 28
+ 1.086128 1 5 cbr 1000 ------- 0 3.0 5.0 28 28
- 1.086128 1 5 cbr 1000 ------- 0 3.0 5.0 28 28
r 1.086166 0 1 cbr 48 ------- 0 3.0 5.0 29 29
+ 1.086166 1 5 cbr 48 ------- 0 3.0 5.0 29 29
- 1.086928 1 5 cbr 48 ------- 0 3.0 5.0 29 29
r 1.08772 3 0 cbr 1000 ------- 0 3.0 5.0 30 30
+ 1.08772 0 1 cbr 1000 ------- 0 3.0 5.0 30 30
- 1.08772 0 1 cbr 1000 ------- 0 3.0 5.0 30 30
r 1.08852 3 0 cbr 1000 ------- 0 3.0 5.0 31 31
+ 1.08852 0 1 cbr 1000 ------- 0 3.0 5.0 31 31
- 1.08852 0 1 cbr 1000 ------- 0 3.0 5.0 31 31
r 1.088558 3 0 cbr 48 ------- 0 3.0 5.0 32 32
+ 1.088558 0 1 cbr 48 ------- 0 3.0 5.0 32 32
- 1.08932 0 1 cbr 48 ------- 0 3.0 5.0 32 32
+ 1.090112 3 0 cbr 1000 ------- 0 3.0 5.0 33 33
- 1.090112 3 0 cbr 1000 ------- 0 3.0 5.0 33 33
+ 1.090112 3 0 cbr 1000 ------- 0 3.0 5.0 34 34
+ 1.090112 3 0 cbr 48 ------- 0 3.0 5.0 35 35
- 1.090912 3 0 cbr 1000 ------- 0 3.0 5.0 34 34
r 1.091128 1 5 cbr 1000 ------- 0 3.0 5.0 27 27
- 1.091712 3 0 cbr 48 ------- 0 3.0 5.0 35 35
r 1.091928 1 5 cbr 1000 ------- 0 3.0 5.0 28 28
r 1.091966 1 5 cbr 48 ------- 0 3.0 5.0 29 29
r 1.09352 0 1 cbr 1000 ------- 0 3.0 5.0 30 30
+ 1.09352 1 5 cbr 1000 ------- 0 3.0 5.0 30 30
- 1.09352 1 5 cbr 1000 ------- 0 3.0 5.0 30 30
r 1.09432 0 1 cbr 1000 ------- 0 3.0 5.0 31 31
+ 1.09432 1 5 cbr 1000 ------- 0 3.0 5.0 31 31
- 1.09432 1 5 cbr 1000 ------- 0 3.0 5.0 31 31
r 1.094358 0 1 cbr 48 ------- 0 3.0 5.0 32 32
+ 1.094358 1 5 cbr 48 ------- 0 3.0 5.0 32 32
- 1.09512 1 5 cbr 48 ------- 0 3.0 5.0 32 32
r 1.095912 3 0 cbr 1000 ------- 0 3.0 5.0 33 33
+ 1.095912 0 1 cbr 1000 ------- 0 3.0 5.0 33 33
- 1.095912 0 1 cbr 1000 ------- 0 3.0 5.0 33 33
r 1.096712 3 0 cbr 1000 ------- 0 3.0 5.0 34 34
+ 1.096712 0 1 cbr 1000 ------- 0 3.0 5.0 34 34
- 1.096712 0 1 cbr 1000 ------- 0 3.0 5.0 34 34
r 1.09675 3 0 cbr 48 ------- 0 3.0 5.0 35 35
+ 1.09675 0 1 cbr 48 ------- 0 3.0 5.0 35 35
- 1.097512 0 1 cbr 48 ------- 0 3.0 5.0 35 35
+ 1.098304 3 0 cbr 1000 ------- 0 3.0 5.0 36 36
- 1.098304 3 0 cbr 1000 ------- 0 3.0 5.0 36 36
+ 1.098304 3 0 cbr 1000 ------- 0 3.0 5.0 37 37
+ 1.098304 3 0 cbr 48 ------- 0 3.0 5.0 38 38
- 1.099104 3 0 cbr 1000 ------- 0 3.0 5.0 37 37
r 1.09932 1 5 cbr 1000 ------- 0 3.0 5.0 30 30
- 1.099904 3 0 cbr 48 ------- 0 3.0 5.0 38 38
r 1.10012 1 5 cbr 1000 ------- 0 3.0 5.0 31 31
r 1.100158 1 5 cbr 48 ------- 0 3.0 5.0 32 32
r 1.101712 0 1 cbr 1000 ------- 0 3.0 5.0 33 33
+ 1.101712 1 5 cbr 1000 ------- 0 3.0 5.0 33 33
- 1.101712 1 5 cbr 1000 ------- 0 3.0 5.0 33 33
r 1.102512 0 1 cbr 1000 ------- 0 3.0 5.0 34 34
+ 1.102512 1 5 cbr 1000 ------- 0 3.0 5.0 34 34
- 1.102512 1 5 cbr 1000 ------- 0 3.0 5.0 34 34
r 1.10255 0 1 cbr 48 ------- 0 3.0 5.0 35 35
+ 1.10255 1 5 cbr 48 ------- 0 3.0 5.0 35 35
- 1.103312 1 5 cbr 48 ------- 0 3.0 5.0 35 35
r 1.104104 3 0 cbr 1000 ------- 0 3.0 5.0 36 36
+ 1.104104 0 1 cbr 1000 ------- 0 3.0 5.0 36 36
- 1.104104 0 1 cbr 1000 ------- 0 3.0 5.0 36 36
r 1.104904 3 0 cbr 1000 ------- 0 3.0 5.0 37 37
+ 1.104904 0 1 cbr 1000 ------- 0 3.0 5.0 37 37
- 1.104904 0 1 cbr 1000 ------- 0 3.0 5.0 37 37
r 1.104942 3 0 cbr 48 ------- 0 3.0 5.0 38 38
+ 1.104942 0 1 cbr 48 ------- 0 3.0 5.0 38 38
- 1.105704 0 1 cbr 48 ------- 0 3.0 5.0 38 38
+ 1.106496 3 0 cbr 1000 ------- 0 3.0 5.0 39 39
- 1.106496 3 0 cbr 1000 ------- 0 3.0 5.0 39 39
+ 1.106496 3 0 cbr 1000 ------- 0 3.0 5.0 40 40
+ 1.106496 3 0 cbr 48 ------- 0 3.0 5.0 41 41
- 1.107296 3 0 cbr 1000 ------- 0 3.0 5.0 40 40
r 1.107512 1 5 cbr 1000 ------- 0 3.0 5.0 33 33
- 1.108096 3 0 cbr 48 ------- 0 3.0 5.0 41 41
r 1.108312 1 5 cbr 1000 ------- 0 3.0 5.0 34 34
r 1.10835 1 5 cbr 48 ------- 0 3.0 5.0 35 35
r 1.109904 0 1 cbr 1000 ------- 0 3.0 5.0 36 36
+ 1.109904 1 5 cbr 1000 ------- 0 3.0 5.0 36 36
- 1.109904 1 5 cbr 1000 ------- 0 3.0 5.0 36 36
r 1.110704 0 1 cbr 1000 ------- 0 3.0 5.0 37 37
+ 1.110704 1 5 cbr 1000 ------- 0 3.0 5.0 37 37
- 1.110704 1 5 cbr 1000 ------- 0 3.0 5.0 37 37
r 1.110742 0 1 cbr 48 ------- 0 3.0 5.0 38 38
+ 1.110742 1 5 cbr 48 ------- 0 3.0 5.0 38 38
- 1.111504 1 5 cbr 48 ------- 0 3.0 5.0 38 38
r 1.112296 3 0 cbr 1000 ------- 0 3.0 5.0 39 39
+ 1.112296 0 1 cbr 1000 ------- 0 3.0 5.0 39 39
- 1.112296 0 1 cbr 1000 ------- 0 3.0 5.0 39 39
r 1.113096 3 0 cbr 1000 ------- 0 3.0 5.0 40 40
+ 1.113096 0 1 cbr 1000 ------- 0 3.0 5.0 40 40
- 1.113096 0 1 cbr 1000 ------- 0 3.0 5.0 40 40
r 1.113134 3 0 cbr 48 ------- 0 3.0 5.0 41 41
+ 1.113134 0 1 cbr 48 ------- 0 3.0 5.0 41 41
- 1.113896 0 1 cbr 48 ------- 0 3.0 5.0 41 41
+ 1.114688 3 0 cbr 1000 ------- 0 3.0 5.0 42 42
- 1.114688 3 0 cbr 1000 ------- 0 3.0 5.0 42 42
+ 1.114688 3 0 cbr 1000 ------- 0 3.0 5.0 43 43
+ 1.114688 3 0 cbr 48 ------- 0 3.0 5.0 44 44
- 1.115488 3 0 cbr 1000 ------- 0 3.0 5.0 43 43
r 1.115704 1 5 cbr 1000 ------- 0 3.0 5.0 36 36
- 1.116288 3 0 cbr 48 ------- 0 3.0 5.0 44 44
r 1.116504 1 5 cbr 1000 ------- 0 3.0 5.0 37 37
r 1.116542 1 5 cbr 48 ------- 0 3.0 5.0 38 38
r 1.118096 0 1 cbr 1000 ------- 0 3.0 5.0 39 39
+ 1.118096 1 5 cbr 1000 ------- 0 3.0 5.0 39 39
- 1.118096 1 5 cbr 1000 ------- 0 3.0 5.0 39 39
r 1.118896 0 1 cbr 1000 ------- 0 3.0 5.0 40 40
+ 1.118896 1 5 cbr 1000 ------- 0 3.0 5.0 40 40
- 1.118896 1 5 cbr 1000 ------- 0 3.0 5.0 40 40
r 1.118934 0 1 cbr 48 ------- 0 3.0 5.0 41 41
+ 1.118934 1 5 cbr 48 ------- 0 3.0 5.0 41 41
- 1.119696 1 5 cbr 48 ------- 0 3.0 5.0 41 41
r 1.120488 3 0 cbr 1000 ------- 0 3.0 5.0 42 42
+ 1.120488 0 1 cbr 1000 ------- 0 3.0 5.0 42 42
- 1.120488 0 1 cbr 1000 ------- 0 3.0 5.0 42 42
r 1.121288 3 0 cbr 1000 ------- 0 3.0 5.0 43 43
+ 1.121288 0 1 cbr 1000 ------- 0 3.0 5.0 43 43
- 1.121288 0 1 cbr 1000 ------- 0 3.0 5.0 43 43
r 1.121326 3 0 cbr 48 ------- 0 3.0 5.0 44 44
+ 1.121326 0 1 cbr 48 ------- 0 3.0 5.0 44 44
- 1.122088 0 1 cbr 48 ------- 0 3.0 5.0 44 44
+ 1.12288 3 0 cbr 1000 ------- 0 3.0 5.0 45 45
- 1.12288 3 0 cbr 1000 ------- 0 3.0 5.0 45 45
+ 1.12288 3 0 cbr 1000 ------- 0 3.0 5.0 46 46
+ 1.12288 3 0 cbr 48 ------- 0 3.0 5.0 47 47
- 1.12368 3 0 cbr 1000 ------- 0 3.0 5.0 46 46
r 1.123896 1 5 cbr 1000 ------- 0 3.0 5.0 39 39
- 1.12448 3 0 cbr 48 ------- 0 3.0 5.0 47 47
r 1.124696 1 5 cbr 1000 ------- 0 3.0 5.0 40 40
r 1.124734 1 5 cbr 48 ------- 0 3.0 5.0 41 41
r 1.126288 0 1 cbr 1000 ------- 0 3.0 5.0 42 42
+ 1.126288 1 5 cbr 1000 ------- 0 3.0 5.0 42 42
- 1.126288 1 5 cbr 1000 ------- 0 3.0 5.0 42 42
r 1.127088 0 1 cbr 1000 ------- 0 3.0 5.0 43 43
+ 1.127088 1 5 cbr 1000 ------- 0 3.0 5.0 43 43
- 1.127088 1 5 cbr 1000 ------- 0 3.0 5.0 43 43
r 1.127126 0 1 cbr 48 ------- 0 3.0 5.0 44 44
+ 1.127126 1 5 cbr 48 ------- 0 3.0 5.0 44 44
- 1.127888 1 5 cbr 48 ------- 0 3.0 5.0 44 44
r 1.12868 3 0 cbr 1000 ------- 0 3.0 5.0 45 45
+ 1.12868 0 1 cbr 1000 ------- 0 3.0 5.0 45 45
- 1.12868 0 1 cbr 1000 ------- 0 3.0 5.0 45 45
r 1.12948 3 0 cbr 1000 ------- 0 3.0 5.0 46 46
+ 1.12948 0 1 cbr 1000 ------- 0 3.0 5.0 46 46
- 1.12948 0 1 cbr 1000 ------- 0 3.0 5.0 46 46
r 1.129518 3 0 cbr 48 ------- 0 3.0 5.0 47 47
+ 1.129518 0 1 cbr 48 ------- 0 3.0 5.0 47 47
- 1.13028 0 1 cbr 48 ------- 0 3.0 5.0 47 47
+ 1.131072 3 0 cbr 1000 ------- 0 3.0 5.0 48 48
- 1.131072 3 0 cbr 1000 ------- 0 3.0 5.0 48 48
+ 1.131072 3 0 cbr 1000 ------- 0 3.0 5.0 49 49
+ 1.131072 3 0 cbr 48 ------- 0 3.0 5.0 50 50
- 1.131872 3 0 cbr 1000 ------- 0 3.0 5.0 49 49
r 1.132088 1 5 cbr 1000 ------- 0 3.0 5.0 42 42
- 1.132672 3 0 cbr 48 ------- 0 3.0 5.0 50 50
r 1.132888 1 5 cbr 1000 ------- 0 3.0 5.0 43 43
r 1.132926 1 5 cbr 48 ------- 0 3.0 5.0 44 44
r 1.13448 0 1 cbr 1000 ------- 0 3.0 5.0 45 45
+ 1.13448 1 5 cbr 1000 ------- 0 3.0 5.0 45 45
- 1.13448 1 5 cbr 1000 ------- 0 3.0 5.0 45 45
r 1.13528 0 1 cbr 1000 ------- 0 3.0 5.0 46 46
+ 1.13528 1 5 cbr 1000 ------- 0 3.0 5.0 46 46
- 1.13528 1 5 cbr 1000 ------- 0 3.0 5.0 46 46
r 1.135318 0 1 cbr 48 ------- 0 3.0 5.0 47 47
+ 1.135318 1 5 cbr 48 ------- 0 3.0 5.0 47 47
- 1.13608 1 5 cbr 48 ------- 0 3.0 5.0 47 47
r 1.136872 3 0 cbr 1000 ------- 0 3.0 5.0 48 48
+ 1.136872 0 1 cbr 1000 ------- 0 3.0 5.0 48 48
- 1.136872 0 1 cbr 1000 ------- 0 3.0 5.0 48 48
r 1.137672 3 0 cbr 1000 ------- 0 3.0 5.0 49 49
+ 1.137672 0 1 cbr 1000 ------- 0 3.0 5.0 49 49
- 1.137672 0 1 cbr 1000 ------- 0 3.0 5.0 49 49
r 1.13771 3 0 cbr 48 ------- 0 3.0 5.0 50 50
+ 1.13771 0 1 cbr 48 ------- 0 3.0 5.0 50 50
- 1.138472 0 1 cbr 48 ------- 0 3.0 5.0 50 50
+ 1.139264 3 0 cbr 1000 ------- 0 3.0 5.0 51 51
- 1.139264 3 0 cbr 1000 ------- 0 3.0 5.0 51 51
+ 1.139264 3 0 cbr 1000 ------- 0 3.0 5.0 52 52
+ 1.139264 3 0 cbr 48 ------- 0 3.0 5.0 53 53
- 1.140064 3 0 cbr 1000 ------- 0 3.0 5.0 52 52
r 1.14028 1 5 cbr 1000 ------- 0 3.0 5.0 45 45
- 1.140864 3 0 cbr 48 ------- 0 3.0 5.0 53 53
r 1.14108 1 5 cbr 1000 ------- 0 3.0 5.0 46 46
r 1.141118 1 5 cbr 48 ------- 0 3.0 5.0 47 47
r 1.142672 0 1 cbr 1000 ------- 0 3.0 5.0 48 48
+ 1.142672 1 5 cbr 1000 ------- 0 3.0 5.0 48 48
- 1.142672 1 5 cbr 1000 ------- 0 3.0 5.0 48 48
r 1.143472 0 1 cbr 1000 ------- 0 3.0 5.0 49 49
+ 1.143472 1 5 cbr 1000 ------- 0 3.0 5.0 49 49
- 1.143472 1 5 cbr 1000 ------- 0 3.0 5.0 49 49
r 1.14351 0 1 cbr 48 ------- 0 3.0 5.0 50 50
+ 1.14351 1 5 cbr 48 ------- 0 3.0 5.0 50 50
- 1.144272 1 5 cbr 48 ------- 0 3.0 5.0 50 50
r 1.145064 3 0 cbr 1000 ------- 0 3.0 5.0 51 51
+ 1.145064 0 1 cbr 1000 ------- 0 3.0 5.0 51 51
- 1.145064 0 1 cbr 1000 ------- 0 3.0 5.0 51 51
r 1.145864 3 0 cbr 1000 ------- 0 3.0 5.0 52 52
+ 1.145864 0 1 cbr 1000 ------- 0 3.0 5.0 52 52
- 1.145864 0 1 cbr 1000 ------- 0 3.0 5.0 52 52
r 1.145902 3 0 cbr 48 ------- 0 3.0 5.0 53 53
+ 1.145902 0 1 cbr 48 ------- 0 3.0 5.0 53 53
- 1.146664 0 1 cbr 48 ------- 0 3.0 5.0 53 53
+ 1.147456 3 0 cbr 1000 ------- 0 3.0 5.0 54 54
- 1.147456 3 0 cbr 1000 ------- 0 3.0 5.0 54 54
+ 1.147456 3 0 cbr 1000 ------- 0 3.0 5.0 55 55
+ 1.147456 3 0 cbr 48 ------- 0 3.0 5.0 56 56
- 1.148256 3 0 cbr 1000 ------- 0 3.0 5.0 55 55
r 1.148472 1 5 cbr 1000 ------- 0 3.0 5.0 48 48
- 1.149056 3 0 cbr 48 ------- 0 3.0 5.0 56 56
r 1.149272 1 5 cbr 1000 ------- 0 3.0 5.0 49 49
r 1.14931 1 5 cbr 48 ------- 0 3.0 5.0 50 50
r 1.150864 0 1 cbr 1000 ------- 0 3.0 5.0 51 51
+ 1.150864 1 5 cbr 1000 ------- 0 3.0 5.0 51 51
- 1.150864 1 5 cbr 1000 ------- 0 3.0 5.0 51 51
r 1.151664 0 1 cbr 1000 ------- 0 3.0 5.0 52 52
+ 1.151664 1 5 cbr 1000 ------- 0 3.0 5.0 52 52
- 1.151664 1 5 cbr 1000 ------- 0 3.0 5.0 52 52
r 1.151702 0 1 cbr 48 ------- 0 3.0 5.0 53 53
+ 1.151702 1 5 cbr 48 ------- 0 3.0 5.0 53 53
- 1.152464 1 5 cbr 48 ------- 0 3.0 5.0 53 53
r 1.153256 3 0 cbr 1000 ------- 0 3.0 5.0 54 54
+ 1.153256 0 1 cbr 1000 ------- 0 3.0 5.0 54 54
- 1.153256 0 1 cbr 1000 ------- 0 3.0 5.0 54 54
r 1.154056 3 0 cbr 1000 ------- 0 3.0 5.0 55 55
+ 1.154056 0 1 cbr 1000 ------- 0 3.0 5.0 55 55
- 1.154056 0 1 cbr 1000 ------- 0 3.0 5.0 55 55
r 1.154094 3 0 cbr 48 ------- 0 3.0 5.0 56 56
+ 1.154094 0 1 cbr 48 ------- 0 3.0 5.0 56 56
- 1.154856 0 1 cbr 48 ------- 0 3.0 5.0 56 56
+ 1.155648 3 0 cbr 1000 ------- 0 3.0 5.0 57 57
- 1.155648 3 0 cbr 1000 ------- 0 3.0 5.0 57 57
+ 1.155648 3 0 cbr 1000 ------- 0 3.0 5.0 58 58
+ 1.155648 3 0 cbr 48 ------- 0 3.0 5.0 59 59
- 1.156448 3 0 cbr 1000 ------- 0 3.0 5.0 58 58
r 1.156664 1 5 cbr 1000 ------- 0 3.0 5.0 51 51
- 1.157248 3 0 cbr 48 ------- 0 3.0 5.0 59 59
r 1.157464 1 5 cbr 1000 ------- 0 3.0 5.0 52 52
r 1.157502 1 5 cbr 48 ------- 0 3.0 5.0 53 53
r 1.159056 0 1 cbr 1000 ------- 0 3.0 5.0 54 54
+ 1.159056 1 5 cbr 1000 ------- 0 3.0 5.0 54 54
- 1.159056 1 5 cbr 1000 ------- 0 3.0 5.0 54 54
r 1.159856 0 1 cbr 1000 ------- 0 3.0 5.0 55 55
+ 1.159856 1 5 cbr 1000 ------- 0 3.0 5.0 55 55
- 1.159856 1 5 cbr 1000 ------- 0 3.0 5.0 55 55
r 1.159894 0 1 cbr 48 ------- 0 3.0 5.0 56 56
+ 1.159894 1 5 cbr 48 ------- 0 3.0 5.0 56 56
- 1.160656 1 5 cbr 48 ------- 0 3.0 5.0 56 56
r 1.161448 3 0 cbr 1000 ------- 0 3.0 5.0 57 57
+ 1.161448 0 1 cbr 1000 ------- 0 3.0 5.0 57 57
- 1.161448 0 1 cbr 1000 ------- 0 3.0 5.0 57 57
r 1.162248 3 0 cbr 1000 ------- 0 3.0 5.0 58 58
+ 1.162248 0 1 cbr 1000 ------- 0 3.0 5.0 58 58
- 1.162248 0 1 cbr 1000 ------- 0 3.0 5.0 58 58
r 1.162286 3 0 cbr 48 ------- 0 3.0 5.0 59 59
+ 1.162286 0 1 cbr 48 ------- 0 3.0 5.0 59 59
- 1.163048 0 1 cbr 48 ------- 0 3.0 5.0 59 59
+ 1.16384 3 0 cbr 1000 ------- 0 3.0 5.0 60 60
- 1.16384 3 0 cbr 1000 ------- 0 3.0 5.0 60 60
+ 1.16384 3 0 cbr 1000 ------- 0 3.0 5.0 61 61
+ 1.16384 3 0 cbr 48 ------- 0 3.0 5.0 62 62
- 1.16464 3 0 cbr 1000 ------- 0 3.0 5.0 61 61
r 1.164856 1 5 cbr 1000 ------- 0 3.0 5.0 54 54
- 1.16544 3 0 cbr 48 ------- 0 3.0 5.0 62 62
r 1.165656 1 5 cbr 1000 ------- 0 3.0 5.0 55 55
r 1.165694 1 5 cbr 48 ------- 0 3.0 5.0 56 56
r 1.167248 0 1 cbr 1000 ------- 0 3.0 5.0 57 57
+ 1.167248 1 5 cbr 1000 ------- 0 3.0 5.0 57 57
- 1.167248 1 5 cbr 1000 ------- 0 3.0 5.0 57 57
r 1.168048 0 1 cbr 1000 ------- 0 3.0 5.0 58 58
+ 1.168048 1 5 cbr 1000 ------- 0 3.0 5.0 58 58
- 1.168048 1 5 cbr 1000 ------- 0 3.0 5.0 58 58
r 1.168086 0 1 cbr 48 ------- 0 3.0 5.0 59 59
+ 1.168086 1 5 cbr 48 ------- 0 3.0 5.0 59 59
- 1.168848 1 5 cbr 48 ------- 0 3.0 5.0 59 59
r 1.16964 3 0 cbr 1000 ------- 0 3.0 5.0 60 60
+ 1.16964 0 1 cbr 1000 ------- 0 3.0 5.0 60 60
- 1.16964 0 1 cbr 1000 ------- 0 3.0 5.0 60 60
r 1.17044 3 0 cbr 1000 ------- 0 3.0 5.0 61 61
+ 1.17044 0 1 cbr 1000 ------- 0 3.0 5.0 61 61
- 1.17044 0 1 cbr 1000 ------- 0 3.0 5.0 61 61
r 1.170478 3 0 cbr 48 ------- 0 3.0 5.0 62 62
+ 1.170478 0 1 cbr 48 ------- 0 3.0 5.0 62 62
- 1.17124 0 1 cbr 48 ------- 0 3.0 5.0 62 62
+ 1.172032 3 0 cbr 1000 ------- 0 3.0 5.0 63 63
- 1.172032 3 0 cbr 1000 ------- 0 3.0 5.0 63 63
+ 1.172032 3 0 cbr 1000 ------- 0 3.0 5.0 64 64
+ 1.172032 3 0 cbr 48 ------- 0 3.0 5.0 65 65
- 1.172832 3 0 cbr 1000 ------- 0 3.0 5.0 64 64
r 1.173048 1 5 cbr 1000 ------- 0 3.0 5.0 57 57
- 1.173632 3 0 cbr 48 ------- 0 3.0 5.0 65 65
r 1.173848 1 5 cbr 1000 ------- 0 3.0 5.0 58 58
r 1.173886 1 5 cbr 48 ------- 0 3.0 5.0 59 59
r 1.17544 0 1 cbr 1000 ------- 0 3.0 5.0 60 60
+ 1.17544 1 5 cbr 1000 ------- 0 3.0 5.0 60 60
- 1.17544 1 5 cbr 1000 ------- 0 3.0 5.0 60 60
r 1.17624 0 1 cbr 1000 ------- 0 3.0 5.0 61 61
+ 1.17624 1 5 cbr 1000 ------- 0 3.0 5.0 61 61
- 1.17624 1 5 cbr 1000 ------- 0 3.0 5.0 61 61
r 1.176278 0 1 cbr 48 ------- 0 3.0 5.0 62 62
+ 1.176278 1 5 cbr 48 ------- 0 3.0 5.0 62 62
- 1.17704 1 5 cbr 48 ------- 0 3.0 5.0 62 62
r 1.177832 3 0 cbr 1000 ------- 0 3.0 5.0 63 63
+ 1.177832 0 1 cbr 1000 ------- 0 3.0 5.0 63 63
- 1.177832 0 1 cbr 1000 ------- 0 3.0 5.0 63 63
r 1.178632 3 0 cbr 1000 ------- 0 3.0 5.0 64 64
+ 1.178632 0 1 cbr 1000 ------- 0 3.0 5.0 64 64
- 1.178632 0 1 cbr 1000 ------- 0 3.0 5.0 64 64
r 1.17867 3 0 cbr 48 ------- 0 3.0 5.0 65 65
+ 1.17867 0 1 cbr 48 ------- 0 3.0 5.0 65 65
- 1.179432 0 1 cbr 48 ------- 0 3.0 5.0 65 65
+ 1.180224 3 0 cbr 1000 ------- 0 3.0 5.0 66 66
- 1.180224 3 0 cbr 1000 ------- 0 3.0 5.0 66 66
+ 1.180224 3 0 cbr 1000 ------- 0 3.0 5.0 67 67
+ 1.180224 3 0 cbr 48 ------- 0 3.0 5.0 68 68
- 1.181024 3 0 cbr 1000 ------- 0 3.0 5.0 67 67
r 1.18124 1 5 cbr 1000 ------- 0 3.0 5.0 60 60
- 1.181824 3 0 cbr 48 ------- 0 3.0 5.0 68 68
r 1.18204 1 5 cbr 1000 ------- 0 3.0 5.0 61 61
r 1.182078 1 5 cbr 48 ------- 0 3.0 5.0 62 62
r 1.183632 0 1 cbr 1000 ------- 0 3.0 5.0 63 63
+ 1.183632 1 5 cbr 1000 ------- 0 3.0 5.0 63 63
- 1.183632 1 5 cbr 1000 ------- 0 3.0 5.0 63 63
r 1.184432 0 1 cbr 1000 ------- 0 3.0 5.0 64 64
+ 1.184432 1 5 cbr 1000 ------- 0 3.0 5.0 64 64
- 1.184432 1 5 cbr 1000 ------- 0 3.0 5.0 64 64
r 1.18447 0 1 cbr 48 ------- 0 3.0 5.0 65 65
+ 1.18447 1 5 cbr 48 ------- 0 3.0 5.0 65 65
- 1.185232 1 5 cbr 48 ------- 0 3.0 5.0 65 65
r 1.186024 3 0 cbr 1000 ------- 0 3.0 5.0 66 66
+ 1.186024 0 1 cbr 1000 ------- 0 3.0 5.0 66 66
- 1.186024 0 1 cbr 1000 ------- 0 3.0 5.0 66 66
r 1.186824 3 0 cbr 1000 ------- 0 3.0 5.0 67 67
+ 1.186824 0 1 cbr 1000 ------- 0 3.0 5.0 67 67
- 1.186824 0 1 cbr 1000 ------- 0 3.0 5.0 67 67
r 1.186862 3 0 cbr 48 ------- 0 3.0 5.0 68 68
+ 1.186862 0 1 cbr 48 ------- 0 3.0 5.0 68 68
- 1.187624 0 1 cbr 48 ------- 0 3.0 5.0 68 68
+ 1.188416 3 0 cbr 1000 ------- 0 3.0 5.0 69 69
- 1.188416 3 0 cbr 1000 ------- 0 3.0 5.0 69 69
+ 1.188416 3 0 cbr 1000 ------- 0 3.0 5.0 70 70
+ 1.188416 3 0 cbr 48 ------- 0 3.0 5.0 71 71
- 1.189216 3 0 cbr 1000 ------- 0 3.0 5.0 70 70
r 1.189432 1 5 cbr 1000 ------- 0 3.0 5.0 63 63
- 1.190016 3 0 cbr 48 ------- 0 3.0 5.0 71 71
r 1.190232 1 5 cbr 1000 ------- 0 3.0 5.0 64 64
r 1.19027 1 5 cbr 48 ------- 0 3.0 5.0 65 65
r 1.191824 0 1 cbr 1000 ------- 0 3.0 5.0 66 66
+ 1.191824 1 5 cbr 1000 ------- 0 3.0 5.0 66 66
- 1.191824 1 5 cbr 1000 ------- 0 3.0 5.0 66 66
r 1.192624 0 1 cbr 1000 ------- 0 3.0 5.0 67 67
+ 1.192624 1 5 cbr 1000 ------- 0 3.0 5.0 67 67
- 1.192624 1 5 cbr 1000 ------- 0 3.0 5.0 67 67
r 1.192662 0 1 cbr 48 ------- 0 3.0 5.0 68 68
+ 1.192662 1 5 cbr 48 ------- 0 3.0 5.0 68 68
- 1.193424 1 5 cbr 48 ------- 0 3.0 5.0 68 68
r 1.194216 3 0 cbr 1000 ------- 0 3.0 5.0 69 69
+ 1.194216 0 1 cbr 1000 ------- 0 3.0 5.0 69 69
- 1.194216 0 1 cbr 1000 ------- 0 3.0 5.0 69 69
r 1.195016 3 0 cbr 1000 ------- 0 3.0 5.0 70 70
+ 1.195016 0 1 cbr 1000 ------- 0 3.0 5.0 70 70
- 1.195016 0 1 cbr 1000 ------- 0 3.0 5.0 70 70
r 1.195054 3 0 cbr 48 ------- 0 3.0 5.0 71 71
+ 1.195054 0 1 cbr 48 ------- 0 3.0 5.0 71 71
- 1.195816 0 1 cbr 48 ------- 0 3.0 5.0 71 71
+ 1.196608 3 0 cbr 1000 ------- 0 3.0 5.0 72 72
- 1.196608 3 0 cbr 1000 ------- 0 3.0 5.0 72 72
+ 1.196608 3 0 cbr 1000 ------- 0 3.0 5.0 73 73
+ 1.196608 3 0 cbr 48 ------- 0 3.0 5.0 74 74
- 1.197408 3 0 cbr 1000 ------- 0 3.0 5.0 73 73
r 1.197624 1 5 cbr 1000 ------- 0 3.0 5.0 66 66
- 1.198208 3 0 cbr 48 ------- 0 3.0 5.0 74 74
r 1.198424 1 5 cbr 1000 ------- 0 3.0 5.0 67 67