n -t * -s 0  -x 212.79068021699351 -y 192.00004972144964 -Z 0 -z 30  -v circle -c black
n -t * -s 1  -x 27.69771405854156 -y 85.109503746549365 -Z 0 -z 30  -v circle -c black
V -t * -v 1.0a5 -a 0
W -t * -x 500 -y 500
A -t * -n 1 -p 0 -o 0x7fffffff -c 30 -a 1
A -t * -h 1 -m 1073741823 -s 0
+ -t 1.000000000 -s 0 -d -1 -p tcp -e 40 -c 2 -a 0 -i 0 -k AGT 
- -t 1.000000000 -s 0 -d -1 -p tcp -e 40 -c 2 -a 0 -i 0 -k AGT
h -t 1.000000000 -s 0 -d -1 -p tcp -e 40 -c 2 -a 0 -i 0 -k AGT
+ -t 1.001231035 -s 0 -d -1 -p DSR -e 32 -c 2 -a 0 -i 1 -k RTR 
- -t 1.001231035 -s 0 -d -1 -p DSR -e 32 -c 2 -a 0 -i 1 -k RTR
h -t 1.001231035 -s 0 -d -1 -p DSR -e 32 -c 2 -a 0 -i 1 -k RTR
+ -t 1.009218480 -s 1 -d 0 -p DSR -e 44 -c 2 -a 0 -i 2 -k RTR 
- -t 1.009218480 -s 1 -d 0 -p DSR -e 44 -c 2 -a 0 -i 2 -k RTR
h -t 1.009218480 -s 1 -d 0 -p DSR -e 44 -c 2 -a 0 -i 2 -k RTR
+ -t 1.013586467 -s 0 -d 1 -p tcp -e 76 -c 2 -a 0 -i 0 -k RTR 
- -t 1.013586467 -s 0 -d 1 -p tcp -e 76 -c 2 -a 0 -i 0 -k RTR
h -t 1.013586467 -s 0 -d 1 -p tcp -e 76 -c 2 -a 0 -i 0 -k RTR
r -t 1.016000604 -s 1 -d 1 -p tcp -e 40 -c 2 -a 0 -i 0 -k AGT
+ -t 1.016000604 -s 1 -d -1 -p ack -e 40 -c 2 -a 0 -i 4 -k AGT 
- -t 1.016000604 -s 1 -d -1 -p ack -e 40 -c 2 -a 0 -i 4 -k AGT
h -t 1.016000604 -s 1 -d -1 -p ack -e 40 -c 2 -a 0 -i 4 -k AGT
+ -t 1.016000604 -s 1 -d 0 -p ack -e 76 -c 2 -a 0 -i 4 -k RTR 
- -t 1.016000604 -s 1 -d 0 -p ack -e 76 -c 2 -a 0 -i 4 -k RTR
h -t 1.016000604 -s 1 -d 0 -p ack -e 76 -c 2 -a 0 -i 4 -k RTR
r -t 1.018354742 -s 0 -d 0 -p ack -e 40 -c 2 -a 0 -i 4 -k AGT
+ -t 1.018354742 -s 0 -d -1 -p tcp -e 1064 -c 2 -a 0 -i 5 -k AGT 
- -t 1.018354742 -s 0 -d -1 -p tcp -e 1064 -c 2 -a 0 -i 5 -k AGT
h -t 1.018354742 -s 0 -d -1 -p tcp -e 1064 -c 2 -a 0 -i 5 -k AGT
+ -t 1.018354742 -s 0 -d -1 -p tcp -e 1064 -c 2 -a 0 -i 6 -k AGT 
- -t 1.018354742 -s 0 -d -1 -p tcp -e 1064 -c 2 -a 0 -i 6 -k AGT
h -t 1.018354742 -s 0 -d -1 -p tcp -e 1064 -c 2 -a 0 -i 6 -k AGT
+ -t 1.018354742 -s 0 -d 1 -p tcp -e 1100 -c 2 -a 0 -i 5 -k RTR 
- -t 1.018354742 -s 0 -d 1 -p tcp -e 1100 -c 2 -a 0 -i 5 -k RTR
h -t 1.018354742 -s 0 -d 1 -p tcp -e 1100 -c 2 -a 0 -i 5 -k RTR
+ -t 1.018354742 -s 0 -d 1 -p tcp -e 1100 -c 2 -a 0 -i 6 -k RTR 
- -t 1.018354742 -s 0 -d 1 -p tcp -e 1100 -c 2 -a 0 -i 6 -k RTR
h -t 1.018354742 -s 0 -d 1 -p tcp -e 1100 -c 2 -a 0 -i 6 -k RTR
r -t 1.028740879 -s 1 -d 1 -p tcp -e 1064 -c 2 -a 0 -i 5 -k AGT
+ -t 1.028740879 -s 1 -d -1 -p ack -e 40 -c 2 -a 0 -i 7 -k AGT 
- -t 1.028740879 -s 1 -d -1 -p ack -e 40 -c 2 -a 0 -i 7 -k AGT
h -t 1.028740879 -s 1 -d -1 -p ack -e 40 -c 2 -a 0 -i 7 -k AGT
+ -t 1.028740879 -s 1 -d 0 -p ack -e 76 -c 2 -a 0 -i 7 -k RTR 
- -t 1.028740879 -s 1 -d 0 -p ack -e 76 -c 2 -a 0 -i 7 -k RTR
h -t 1.028740879 -s 1 -d 0 -p ack -e 76 -c 2 -a 0 -i 7 -k RTR
r -t 1.039067729 -s 1 -d 1 -p tcp -e 1064 -c 2 -a 0 -i 6 -k AGT
+ -t 1.039067729 -s 1 -d -1 -p ack -e 40 -c 2 -a 0 -i 8 -k AGT 
- -t 1.039067729 -s 1 -d -1 -p ack -e 40 -c 2 -a 0 -i 8 -k AGT
h -t 1.039067729 -s 1 -d -1 -p ack -e 40 -c 2 -a 0 -i 8 -k AGT
+ -t 1.039067729 -s 1 -d 0 -p ack -e 76 -c 2 -a 0 -i 8 -k RTR 
- -t 1.039067729 -s 1 -d 0 -p ack -e 76 -c 2 -a 0 -i 8 -k RTR
h -t 1.039067729 -s 1 -d 0 -p ack -e 76 -c 2 -a 0 -i 8 -k RTR
r -t 1.041381866 -s 0 -d 0 -p ack -e 40 -c 2 -a 0 -i 7 -k AGT
+ -t 1.041381866 -s 0 -d -1 -p tcp -e 1064 -c 2 -a 0 -i 9 -k AGT 
- -t 1.041381866 -s 0 -d -1 -p tcp -e 1064 -c 2 -a 0 -i 9 -k AGT
h -t 1.041381866 -s 0 -d -1 -p tcp -e 1064 -c 2 -a 0 -i 9 -k AGT
+ -t 1.041381866 -s 0 -d -1 -p tcp -e 1064 -c 2 -a 0 -i 10 -k AGT 
- -t 1.041381866 -s 0 -d -1 -p tcp -e 1064 -c 2 -a 0 -i 10 -k AGT
h -t 1.041381866 -s 0 -d -1 -p tcp -e 1064 -c 2 -a 0 -i 10 -k AGT
+ -t 1.041381866 -s 0 -d 1 -p tcp -e 1084 -c 2 -a 0 -i 9 -k RTR 
- -t 1.041381866 -s 0 -d 1 -p tcp -e 1084 -c 2 -a 0 -i 9 -k RTR
h -t 1.041381866 -s 0 -d 1 -p tcp -e 1084 -c 2 -a 0 -i 9 -k RTR
+ -t 1.041381866 -s 0 -d 1 -p tcp -e 1084 -c 2 -a 0 -i 10 -k RTR 
- -t 1.041381866 -s 0 -d 1 -p tcp -e 1084 -c 2 -a 0 -i 10 -k RTR
h -t 1.041381866 -s 0 -d 1 -p tcp -e 1084 -c 2 -a 0 -i 10 -k RTR
r -t 1.043736716 -s 0 -d 0 -p ack -e 40 -c 2 -a 0 -i 8 -k AGT
+ -t 1.043736716 -s 0 -d -1 -p tcp -e 1064 -c 2 -a 0 -i 11 -k AGT 
- -t 1.043736716 -s 0 -d -1 -p tcp -e 1064 -c 2 -a 0 -i 11 -k AGT
h -t 1.043736716 -s 0 -d -1 -p tcp -e 1064 -c 2 -a 0 -i 11 -k AGT
+ -t 1.043736716 -s 0 -d -1 -p tcp -e 1064 -c 2 -a 0 -i 12 -k AGT 
- -t 1.043736716 -s 0 -d -1 -p tcp -e 1064 -c 2 -a 0 -i 12 -k AGT
h -t 1.043736716 -s 0 -d -1 -p tcp -e 1064 -c 2 -a 0 -i 12 -k AGT
+ -t 1.043736716 -s 0 -d 1 -p tcp -e 1084 -c 2 -a 0 -i 11 -k RTR 
- -t 1.043736716 -s 0 -d 1 -p tcp -e 1084 -c 2 -a 0 -i 11 -k RTR
h -t 1.043736716 -s 0 -d 1 -p tcp -e 1084 -c 2 -a 0 -i 11 -k RTR
+ -t 1.043736716 -s 0 -d 1 -p tcp -e 1084 -c 2 -a 0 -i 12 -k RTR 
- -t 1.043736716 -s 0 -d 1 -p tcp -e 1084 -c 2 -a 0 -i 12 -k RTR
h -t 1.043736716 -s 0 -d 1 -p tcp -e 1084 -c 2 -a 0 -i 12 -k RTR
r -t 1.053974854 -s 1 -d 1 -p tcp -e 1064 -c 2 -a 0 -i 9 -k AGT
+ -t 1.053974854 -s 1 -d -1 -p ack -e 40 -c 2 -a 0 -i 13 -k AGT 
- -t 1.053974854 -s 1 -d -1 -p ack -e 40 -c 2 -a 0 -i 13 -k AGT
h -t 1.053974854 -s 1 -d -1 -p ack -e 40 -c 2 -a 0 -i 13 -k AGT
+ -t 1.053974854 -s 1 -d 0 -p ack -e 60 -c 2 -a 0 -i 13 -k RTR 
- -t 1.053974854 -s 1 -d 0 -p ack -e 60 -c 2 -a 0 -i 13 -k RTR
h -t 1.053974854 -s 1 -d 0 -p ack -e 60 -c 2 -a 0 -i 13 -k RTR
r -t 1.064193704 -s 1 -d 1 -p tcp -e 1064 -c 2 -a 0 -i 10 -k AGT
+ -t 1.064193704 -s 1 -d -1 -p ack -e 40 -c 2 -a 0 -i 14 -k AGT 
- -t 1.064193704 -s 1 -d -1 -p ack -e 40 -c 2 -a 0 -i 14 -k AGT
h -t 1.064193704 -s 1 -d -1 -p ack -e 40 -c 2 -a 0 -i 14 -k AGT
+ -t 1.064193704 -s 1 -d 0 -p ack -e 60 -c 2 -a 0 -i 14 -k RTR 
- -t 1.064193704 -s 1 -d 0 -p ack -e 60 -c 2 -a 0 -i 14 -k RTR
h -t 1.064193704 -s 1 -d 0 -p ack -e 60 -c 2 -a 0 -i 14 -k RTR
r -t 1.066219841 -s 0 -d 0 -p ack -e 40 -c 2 -a 0 -i 13 -k AGT
+ -t 1.066219841 -s 0 -d -1 -p tcp -e 1064 -c 2 -a 0 -i 15 -k AGT 
- -t 1.066219841 -s 0 -d -1 -p tcp -e 1064 -c 2 -a 0 -i 15 -k AGT
h -t 1.066219841 -s 0 -d -1 -p tcp -e 1064 -c 2 -a 0 -i 15 -k AGT
+ -t 1.066219841 -s 0 -d -1 -p tcp -e 1064 -c 2 -a 0 -i 16 -k AGT 
- -t 1.066219841 -s 0 -d -1 -p tcp -e 1064 -c 2 -a 0 -i 16 -k AGT
h -t 1.066219841 -s 0 -d -1 -p tcp -e 1064 -c 2 -a 0 -i 16 -k AGT
+ -t 1.066219841 -s 0 -d 1 -p tcp -e 1084 -c 2 -a 0 -i 15 -k RTR 
- -t 1.066219841 -s 0 -d 1 -p tcp -e 1084 -c 2 -a 0 -i 15 -k RTR
h -t 1.066219841 -s 0 -d 1 -p tcp -e 1084 -c 2 -a 0 -i 15 -k RTR
+ -t 1.066219841 -s 0 -d 1 -p tcp -e 1084 -c 2 -a 0 -i 16 -k RTR 
- -t 1.066219841 -s 0 -d 1 -p tcp -e 1084 -c 2 -a 0 -i 16 -k RTR
h -t 1.066219841 -s 0 -d 1 -p tcp -e 1084 -c 2 -a 0 -i 16 -k RTR
r -t 1.068406691 -s 0 -d 0 -p ack -e 40 -c 2 -a 0 -i 14 -k AGT
+ -t 1.068406691 -s 0 -d -1 -p tcp -e 1064 -c 2 -a 0 -i 17 -k AGT 
- -t 1.068406691 -s 0 -d -1 -p tcp -e 1064 -c 2 -a 0 -i 17 -k AGT
h -t 1.068406691 -s 0 -d -1 -p tcp -e 1064 -c 2 -a 0 -i 17 -k AGT
+ -t 1.068406691 -s 0 -d -1 -p tcp -e 1064 -c 2 -a 0 -i 18 -k AGT 
- -t 1.068406691 -s 0 -d -1 -p tcp -e 1064 -c 2 -a 0 -i 18 -k AGT
h -t 1.068406691 -s 0 -d -1 -p tcp -e 1064 -c 2 -a 0 -i 18 -k AGT
+ -t 1.068406691 -s 0 -d 1 -p tcp -e 1084 -c 2 -a 0 -i 17 -k RTR 
- -t 1.068406691 -s 0 -d 1 -p tcp -e 1084 -c 2 -a 0 -i 17 -k RTR
h -t 1.068406691 -s 0 -d 1 -p tcp -e 1084 -c 2 -a 0 -i 17 -k RTR
+ -t 1.068406691 -s 0 -d 1 -p tcp -e 1084 -c 2 -a 0 -i 18 -k RTR 
- -t 1.068406691 -s 0 -d 1 -p tcp -e 1084 -c 2 -a 0 -i 18 -k RTR
h -t 1.068406691 -s 0 -d 1 -p tcp -e 1084 -c 2 -a 0 -i 18 -k RTR
r -t 1.078824828 -s 1 -d 1 -p tcp -e 1064 -c 2 -a 0 -i 11 -k AGT
+ -t 1.078824828 -s 1 -d -1 -p ack -e 40 -c 2 -a 0 -i 19 -k AGT 
- -t 1.078824828 -s 1 -d -1 -p ack -e 40 -c 2 -a 0 -i 19 -k AGT
h -t 1.078824828 -s 1 -d -1 -p ack -e 40 -c 2 -a 0 -i 19 -k AGT
+ -t 1.078824828 -s 1 -d 0 -p ack -e 60 -c 2 -a 0 -i 19 -k RTR 
- -t 1.078824828 -s 1 -d 0 -p ack -e 60 -c 2 -a 0 -i 19 -k RTR
h -t 1.078824828 -s 1 -d 0 -p ack -e 60 -c 2 -a 0 -i 19 -k RTR
r -t 1.080890966 -s 0 -d 0 -p ack -e 40 -c 2 -a 0 -i 19 -k AGT
+ -t 1.080890966 -s 0 -d -1 -p tcp -e 1064 -c 2 -a 0 -i 20 -k AGT 
- -t 1.080890966 -s 0 -d -1 -p tcp -e 1064 -c 2 -a 0 -i 20 -k AGT
h -t 1.080890966 -s 0 -d -1 -p tcp -e 1064 -c 2 -a 0 -i 20 -k AGT
+ -t 1.080890966 -s 0 -d -1 -p tcp -e 1064 -c 2 -a 0 -i 21 -k AGT 
- -t 1.080890966 -s 0 -d -1 -p tcp -e 1064 -c 2 -a 0 -i 21 -k AGT
h -t 1.080890966 -s 0 -d -1 -p tcp -e 1064 -c 2 -a 0 -i 21 -k AGT
+ -t 1.080890966 -s 0 -d 1 -p tcp -e 1084 -c 2 -a 0 -i 20 -k RTR 
- -t 1.080890966 -s 0 -d 1 -p tcp -e 1084 -c 2 -a 0 -i 20 -k RTR
h -t 1.080890966 -s 0 -d 1 -p tcp -e 1084 -c 2 -a 0 -i 20 -k RTR
+ -t 1.080890966 -s 0 -d 1 -p tcp -e 1084 -c 2 -a 0 -i 21 -k RTR 
- -t 1.080890966 -s 0 -d 1 -p tcp -e 1084 -c 2 -a 0 -i 21 -k RTR
h -t 1.080890966 -s 0 -d 1 -p tcp -e 1084 -c 2 -a 0 -i 21 -k RTR
r -t 1.091269103 -s 1 -d 1 -p tcp -e 1064 -c 2 -a 0 -i 12 -k AGT
+ -t 1.091269103 -s 1 -d -1 -p ack -e 40 -c 2 -a 0 -i 22 -k AGT 
- -t 1.091269103 -s 1 -d -1 -p ack -e 40 -c 2 -a 0 -i 22 -k AGT
h -t 1.091269103 -s 1 -d -1 -p ack -e 40 -c 2 -a 0 -i 22 -k AGT
+ -t 1.091269103 -s 1 -d 0 -p ack -e 60 -c 2 -a 0 -i 22 -k RTR 
- -t 1.091269103 -s 1 -d 0 -p ack -e 60 -c 2 -a 0 -i 22 -k RTR
h -t 1.091269103 -s 1 -d 0 -p ack -e 60 -c 2 -a 0 -i 22 -k RTR
r -t 1.093595241 -s 0 -d 0 -p ack -e 40 -c 2 -a 0 -i 22 -k AGT
+ -t 1.093595241 -s 0 -d -1 -p tcp -e 1064 -c 2 -a 0 -i 23 -k AGT 
- -t 1.093595241 -s 0 -d -1 -p tcp -e 1064 -c 2 -a 0 -i 23 -k AGT
h -t 1.093595241 -s 0 -d -1 -p tcp -e 1064 -c 2 -a 0 -i 23 -k AGT
+ -t 1.093595241 -s 0 -d -1 -p tcp -e 1064 -c 2 -a 0 -i 24 -k AGT 
- -t 1.093595241 -s 0 -d -1 -p tcp -e 1064 -c 2 -a 0 -i 24 -k AGT
h -t 1.093595241 -s 0 -d -1 -p tcp -e 1064 -c 2 -a 0 -i 24 -k AGT
+ -t 1.093595241 -s 0 -d 1 -p tcp -e 1084 -c 2 -a 0 -i 23 -k RTR 
- -t 1.093595241 -s 0 -d 1 -p tcp -e 1084 -c 2 -a 0 -i 23 -k RTR
h -t 1.093595241 -s 0 -d 1 -p tcp -e 1084 -c 2 -a 0 -i 23 -k RTR
+ -t 1.093595241 -s 0 -d 1 -p tcp -e 1084 -c 2 -a 0 -i 24 -k RTR 
- -t 1.093595241 -s 0 -d 1 -p tcp -e 1084 -c 2 -a 0 -i 24 -k RTR
h -t 1.093595241 -s 0 -d 1 -p tcp -e 1084 -c 2 -a 0 -i 24 -k RTR
r -t 1.104053378 -s 1 -d 1 -p tcp -e 1064 -c 2 -a 0 -i 15 -k AGT
+ -t 1.104053378 -s 1 -d -1 -p ack -e 40 -c 2 -a 0 -i 25 -k AGT 
- -t 1.104053378 -s 1 -d -1 -p ack -e 40 -c 2 -a 0 -i 25 -k AGT
h -t 1.104053378 -s 1 -d -1 -p ack -e 40 -c 2 -a 0 -i 25 -k AGT
+ -t 1.104053378 -s 1 -d 0 -p ack -e 60 -c 2 -a 0 -i 25 -k RTR 
- -t 1.104053378 -s 1 -d 0 -p ack -e 60 -c 2 -a 0 -i 25 -k RTR
h -t 1.104053378 -s 1 -d 0 -p ack -e 60 -c 2 -a 0 -i 25 -k RTR
r -t 1.106099515 -s 0 -d 0 -p ack -e 40 -c 2 -a 0 -i 25 -k AGT
+ -t 1.106099515 -s 0 -d -1 -p tcp -e 1064 -c 2 -a 0 -i 26 -k AGT 
- -t 1.106099515 -s 0 -d -1 -p tcp -e 1064 -c 2 -a 0 -i 26 -k AGT
h -t 1.106099515 -s 0 -d -1 -p tcp -e 1064 -c 2 -a 0 -i 26 -k AGT
+ -t 1.106099515 -s 0 -d -1 -p tcp -e 1064 -c 2 -a 0 -i 27 -k AGT 
- -t 1.106099515 -s 0 -d -1 -p tcp -e 1064 -c 2 -a 0 -i 27 -k AGT
h -t 1.106099515 -s 0 -d -1 -p tcp -e 1064 -c 2 -a 0 -i 27 -k AGT
+ -t 1.106099515 -s 0 -d 1 -p tcp -e 1084 -c 2 -a 0 -i 26 -k RTR 
- -t 1.106099515 -s 0 -d 1 -p tcp -e 1084 -c 2 -a 0 -i 26 -k RTR
h -t 1.106099515 -s 0 -d 1 -p tcp -e 1084 -c 2 -a 0 -i 26 -k RTR
+ -t 1.106099515 -s 0 -d 1 -p tcp -e 1084 -c 2 -a 0 -i 27 -k RTR 
- -t 1.106099515 -s 0 -d 1 -p tcp -e 1084 -c 2 -a 0 -i 27 -k RTR
h -t 1.106099515 -s 0 -d 1 -p tcp -e 1084 -c 2 -a 0 -i 27 -k RTR
r -t 1.116817653 -s 1 -d 1 -p tcp -e 1064 -c 2 -a 0 -i 16 -k AGT
+ -t 1.116817653 -s 1 -d -1 -p ack -e 40 -c 2 -a 0 -i 28 -k AGT 
- -t 1.116817653 -s 1 -d -1 -p ack -e 40 -c 2 -a 0 -i 28 -k AGT
h -t 1.116817653 -s 1 -d -1 -p ack -e 40 -c 2 -a 0 -i 28 -k AGT
+ -t 1.116817653 -s 1 -d 0 -p ack -e 60 -c 2 -a 0 -i 28 -k RTR 
- -t 1.116817653 -s 1 -d 0 -p ack -e 60 -c 2 -a 0 -i 28 -k RTR
h -t 1.116817653 -s 1 -d 0 -p ack -e 60 -c 2 -a 0 -i 28 -k RTR
r -t 1.127436503 -s 1 -d 1 -p tcp -e 1064 -c 2 -a 0 -i 17 -k AGT
+ -t 1.127436503 -s 1 -d -1 -p ack -e 40 -c 2 -a 0 -i 29 -k AGT 
- -t 1.127436503 -s 1 -d -1 -p ack -e 40 -c 2 -a 0 -i 29 -k AGT
h -t 1.127436503 -s 1 -d -1 -p ack -e 40 -c 2 -a 0 -i 29 -k AGT
+ -t 1.127436503 -s 1 -d 0 -p ack -e 60 -c 2 -a 0 -i 29 -k RTR 
- -t 1.127436503 -s 1 -d 0 -p ack -e 60 -c 2 -a 0 -i 29 -k RTR
h -t 1.127436503 -s 1 -d 0 -p ack -e 60 -c 2 -a 0 -i 29 -k RTR
r -t 1.129582640 -s 0 -d 0 -p ack -e 40 -c 2 -a 0 -i 28 -k AGT
+ -t 1.129582640 -s 0 -d -1 -p tcp -e 1064 -c 2 -a 0 -i 30 -k AGT 
- -t 1.129582640 -s 0 -d -1 -p tcp -e 1064 -c 2 -a 0 -i 30 -k AGT
h -t 1.129582640 -s 0 -d -1 -p tcp -e 1064 -c 2 -a 0 -i 30 -k AGT
+ -t 1.129582640 -s 0 -d -1 -p tcp -e 1064 -c 2 -a 0 -i 31 -k AGT 
- -t 1.129582640 -s 0 -d -1 -p tcp -e 1064 -c 2 -a 0 -i 31 -k AGT
h -t 1.129582640 -s 0 -d -1 -p tcp -e 1064 -c 2 -a 0 -i 31 -k AGT
+ -t 1.129582640 -s 0 -d 1 -p tcp -e 1084 -c 2 -a 0 -i 30 -k RTR 
- -t 1.129582640 -s 0 -d 1 -p tcp -e 1084 -c 2 -a 0 -i 30 -k RTR
h -t 1.129582640 -s 0 -d 1 -p tcp -e 1084 -c 2 -a 0 -i 30 -k RTR
+ -t 1.129582640 -s 0 -d 1 -p tcp -e 1084 -c 2 -a 0 -i 31 -k RTR 
- -t 1.129582640 -s 0 -d 1 -p tcp -e 1084 -c 2 -a 0 -i 31 -k RTR
h -t 1.129582640 -s 0 -d 1 -p tcp -e 1084 -c 2 -a 0 -i 31 -k RTR
r -t 1.139920777 -s 1 -d 1 -p tcp -e 1064 -c 2 -a 0 -i 18 -k AGT
+ -t 1.139920777 -s 1 -d -1 -p ack -e 40 -c 2 -a 0 -i 32 -k AGT 
- -t 1.139920777 -s 1 -d -1 -p ack -e 40 -c 2 -a 0 -i 32 -k AGT
h -t 1.139920777 -s 1 -d -1 -p ack -e 40 -c 2 -a 0 -i 32 -k AGT
+ -t 1.139920777 -s 1 -d 0 -p ack -e 60 -c 2 -a 0 -i 32 -k RTR 
- -t 1.139920777 -s 1 -d 0 -p ack -e 60 -c 2 -a 0 -i 32 -k RTR
h -t 1.139920777 -s 1 -d 0 -p ack -e 60 -c 2 -a 0 -i 32 -k RTR
r -t 1.142066915 -s 0 -d 0 -p ack -e 40 -c 2 -a 0 -i 29 -k AGT
+ -t 1.142066915 -s 0 -d -1 -p tcp -e 1064 -c 2 -a 0 -i 33 -k AGT 
- -t 1.142066915 -s 0 -d -1 -p tcp -e 1064 -c 2 -a 0 -i 33 -k AGT
h -t 1.142066915 -s 0 -d -1 -p tcp -e 1064 -c 2 -a 0 -i 33 -k AGT
+ -t 1.142066915 -s 0 -d -1 -p tcp -e 1064 -c 2 -a 0 -i 34 -k AGT 
- -t 1.142066915 -s 0 -d -1 -p tcp -e 1064 -c 2 -a 0 -i 34 -k AGT
h -t 1.142066915 -s 0 -d -1 -p tcp -e 1064 -c 2 -a 0 -i 34 -k AGT
+ -t 1.142066915 -s 0 -d 1 -p tcp -e 1084 -c 2 -a 0 -i 33 -k RTR 
- -t 1.142066915 -s 0 -d 1 -p tcp -e 1084 -c 2 -a 0 -i 33 -k RTR
h -t 1.142066915 -s 0 -d 1 -p tcp -e 1084 -c 2 -a 0 -i 33 -k RTR
+ -t 1.142066915 -s 0 -d 1 -p tcp -e 1084 -c 2 -a 0 -i 34 -k RTR 
- -t 1.142066915 -s 0 -d 1 -p tcp -e 1084 -c 2 -a 0 -i 34 -k RTR
h -t 1.142066915 -s 0 -d 1 -p tcp -e 1084 -c 2 -a 0 -i 34 -k RTR
r -t 1.152405052 -s 1 -d 1 -p tcp -e 1064 -c 2 -a 0 -i 20 -k AGT
+ -t 1.152405052 -s 1 -d -1 -p ack -e 40 -c 2 -a 0 -i 35 -k AGT 
- -t 1.152405052 -s 1 -d -1 -p ack -e 40 -c 2 -a 0 -i 35 -k AGT
h -t 1.152405052 -s 1 -d -1 -p ack -e 40 -c 2 -a 0 -i 35 -k AGT
+ -t 1.152405052 -s 1 -d 0 -p ack -e 60 -c 2 -a 0 -i 35 -k RTR 
- -t 1.152405052 -s 1 -d 0 -p ack -e 60 -c 2 -a 0 -i 35 -k RTR
h -t 1.152405052 -s 1 -d 0 -p ack -e 60 -c 2 -a 0 -i 35 -k RTR
r -t 1.154591190 -s 0 -d 0 -p ack -e 40 -c 2 -a 0 -i 32 -k AGT
+ -t 1.154591190 -s 0 -d -1 -p tcp -e 1064 -c 2 -a 0 -i 36 -k AGT 
- -t 1.154591190 -s 0 -d -1 -p tcp -e 1064 -c 2 -a 0 -i 36 -k AGT
h -t 1.154591190 -s 0 -d -1 -p tcp -e 1064 -c 2 -a 0 -i 36 -k AGT
+ -t 1.154591190 -s 0 -d -1 -p tcp -e 1064 -c 2 -a 0 -i 37 -k AGT 
- -t 1.154591190 -s 0 -d -1 -p tcp -e 1064 -c 2 -a 0 -i 37 -k AGT
h -t 1.154591190 -s 0 -d -1 -p tcp -e 1064 -c 2 -a 0 -i 37 -k AGT
+ -t 1.154591190 -s 0 -d 1 -p tcp -e 1084 -c 2 -a 0 -i 36 -k RTR 
- -t 1.154591190 -s 0 -d 1 -p tcp -e 1084 -c 2 -a 0 -i 36 -k RTR
h -t 1.154591190 -s 0 -d 1 -p tcp -e 1084 -c 2 -a 0 -i 36 -k RTR
+ -t 1.154591190 -s 0 -d 1 -p tcp -e 1084 -c 2 -a 0 -i 37 -k RTR 
- -t 1.154591190 -s 0 -d 1 -p tcp -e 1084 -c 2 -a 0 -i 37 -k RTR
h -t 1.154591190 -s 0 -d 1 -p tcp -e 1084 -c 2 -a 0 -i 37 -k RTR
r -t 1.156798039 -s 0 -d 0 -p ack -e 40 -c 2 -a 0 -i 35 -k AGT
+ -t 1.156798039 -s 0 -d -1 -p tcp -e 1064 -c 2 -a 0 -i 38 -k AGT 
- -t 1.156798039 -s 0 -d -1 -p tcp -e 1064 -c 2 -a 0 -i 38 -k AGT
h -t 1.156798039 -s 0 -d -1 -p tcp -e 1064 -c 2 -a 0 -i 38 -k AGT
+ -t 1.156798039 -s 0 -d -1 -p tcp -e 1064 -c 2 -a 0 -i 39 -k AGT 
- -t 1.156798039 -s 0 -d -1 -p tcp -e 1064 -c 2 -a 0 -i 39 -k AGT
h -t 1.156798039 -s 0 -d -1 -p tcp -e 1064 -c 2 -a 0 -i 39 -k AGT
+ -t 1.156798039 -s 0 -d 1 -p tcp -e 1084 -c 2 -a 0 -i 38 -k RTR 
- -t 1.156798039 -s 0 -d 1 -p tcp -e 1084 -c 2 -a 0 -i 38 -k RTR
h -t 1.156798039 -s 0 -d 1 -p tcp -e 1084 -c 2 -a 0 -i 38 -k RTR
+ -t 1.156798039 -s 0 -d 1 -p tcp -e 1084 -c 2 -a 0 -i 39 -k RTR 
- -t 1.156798039 -s 0 -d 1 -p tcp -e 1084 -c 2 -a 0 -i 39 -k RTR
h -t 1.156798039 -s 0 -d 1 -p tcp -e 1084 -c 2 -a 0 -i 39 -k RTR
r -t 1.167156177 -s 1 -d 1 -p tcp -e 1064 -c 2 -a 0 -i 21 -k AGT
+ -t 1.167156177 -s 1 -d -1 -p ack -e 40 -c 2 -a 0 -i 40 -k AGT 
- -t 1.167156177 -s 1 -d -1 -p ack -e 40 -c 2 -a 0 -i 40 -k AGT
h -t 1.167156177 -s 1 -d -1 -p ack -e 40 -c 2 -a 0 -i 40 -k AGT
+ -t 1.167156177 -s 1 -d 0 -p ack -e 60 -c 2 -a 0 -i 40 -k RTR 
- -t 1.167156177 -s 1 -d 0 -p ack -e 60 -c 2 -a 0 -i 40 -k RTR
h -t 1.167156177 -s 1 -d 0 -p ack -e 60 -c 2 -a 0 -i 40 -k RTR
r -t 1.169302314 -s 0 -d 0 -p ack -e 40 -c 2 -a 0 -i 40 -k AGT
+ -t 1.169302314 -s 0 -d -1 -p tcp -e 1064 -c 2 -a 0 -i 41 -k AGT 
- -t 1.169302314 -s 0 -d -1 -p tcp -e 1064 -c 2 -a 0 -i 41 -k AGT
h -t 1.169302314 -s 0 -d -1 -p tcp -e 1064 -c 2 -a 0 -i 41 -k AGT
+ -t 1.169302314 -s 0 -d -1 -p tcp -e 1064 -c 2 -a 0 -i 42 -k AGT 
- -t 1.169302314 -s 0 -d -1 -p tcp -e 1064 -c 2 -a 0 -i 42 -k AGT
h -t 1.169302314 -s 0 -d -1 -p tcp -e 1064 -c 2 -a 0 -i 42 -k AGT
+ -t 1.169302314 -s 0 -d 1 -p tcp -e 1084 -c 2 -a 0 -i 41 -k RTR 
- -t 1.169302314 -s 0 -d 1 -p tcp -e 1084 -c 2 -a 0 -i 41 -k RTR
h -t 1.169302314 -s 0 -d 1 -p tcp -e 1084 -c 2 -a 0 -i 41 -k RTR
+ -t 1.169302314 -s 0 -d 1 -p tcp -e 1084 -c 2 -a 0 -i 42 -k RTR 
- -t 1.169302314 -s 0 -d 1 -p tcp -e 1084 -c 2 -a 0 -i 42 -k RTR
h -t 1.169302314 -s 0 -d 1 -p tcp -e 1084 -c 2 -a 0 -i 42 -k RTR
r -t 1.179780452 -s 1 -d 1 -p tcp -e 1064 -c 2 -a 0 -i 23 -k AGT
+ -t 1.179780452 -s 1 -d -1 -p ack -e 40 -c 2 -a 0 -i 43 -k AGT 
- -t 1.179780452 -s 1 -d -1 -p ack -e 40 -c 2 -a 0 -i 43 -k AGT
h -t 1.179780452 -s 1 -d -1 -p ack -e 40 -c 2 -a 0 -i 43 -k AGT
+ -t 1.179780452 -s 1 -d 0 -p ack -e 60 -c 2 -a 0 -i 43 -k RTR 
- -t 1.179780452 -s 1 -d 0 -p ack -e 60 -c 2 -a 0 -i 43 -k RTR
h -t 1.179780452 -s 1 -d 0 -p ack -e 60 -c 2 -a 0 -i 43 -k RTR
r -t 1.181886589 -s 0 -d 0 -p ack -e 40 -c 2 -a 0 -i 43 -k AGT
+ -t 1.181886589 -s 0 -d -1 -p tcp -e 1064 -c 2 -a 0 -i 44 -k AGT 
- -t 1.181886589 -s 0 -d -1 -p tcp -e 1064 -c 2 -a 0 -i 44 -k AGT
h -t 1.181886589 -s 0 -d -1 -p tcp -e 1064 -c 2 -a 0 -i 44 -k AGT
+ -t 1.181886589 -s 0 -d -1 -p tcp -e 1064 -c 2 -a 0 -i 45 -k AGT 
- -t 1.181886589 -s 0 -d -1 -p tcp -e 1064 -c 2 -a 0 -i 45 -k AGT
h -t 1.181886589 -s 0 -d -1 -p tcp -e 1064 -c 2 -a 0 -i 45 -k AGT
+ -t 1.181886589 -s 0 -d 1 -p tcp -e 1084 -c 2 -a 0 -i 44 -k RTR 
- -t 1.181886589 -s 0 -d 1 -p tcp -e 1084 -c 2 -a 0 -i 44 -k RTR
h -t 1.181886589 -s 0 -d 1 -p tcp -e 1084 -c 2 -a 0 -i 44 -k RTR
+ -t 1.181886589 -s 0 -d 1 -p tcp -e 1084 -c 2 -a 0 -i 45 -k RTR 
- -t 1.181886589 -s 0 -d 1 -p tcp -e 1084 -c 2 -a 0 -i 45 -k RTR
h -t 1.181886589 -s 0 -d 1 -p tcp -e 1084 -c 2 -a 0 -i 45 -k RTR
r -t 1.192124727 -s 1 -d 1 -p tcp -e 1064 -c 2 -a 0 -i 24 -k AGT
+ -t 1.192124727 -s 1 -d -1 -p ack -e 40 -c 2 -a 0 -i 46 -k AGT 
- -t 1.192124727 -s 1 -d -1 -p ack -e 40 -c 2 -a 0 -i 46 -k AGT
h -t 1.192124727 -s 1 -d -1 -p ack -e 40 -c 2 -a 0 -i 46 -k AGT
+ -t 1.192124727 -s 1 -d 0 -p ack -e 60 -c 2 -a 0 -i 46 -k RTR 
- -t 1.192124727 -s 1 -d 0 -p ack -e 60 -c 2 -a 0 -i 46 -k RTR
h -t 1.192124727 -s 1 -d 0 -p ack -e 60 -c 2 -a 0 -i 46 -k RTR
r -t 1.202443576 -s 1 -d 1 -p tcp -e 1064 -c 2 -a 0 -i 26 -k AGT
+ -t 1.202443576 -s 1 -d -1 -p ack -e 40 -c 2 -a 0 -i 47 -k AGT 
- -t 1.202443576 -s 1 -d -1 -p ack -e 40 -c 2 -a 0 -i 47 -k AGT
h -t 1.202443576 -s 1 -d -1 -p ack -e 40 -c 2 -a 0 -i 47 -k AGT
+ -t 1.202443576 -s 1 -d 0 -p ack -e 60 -c 2 -a 0 -i 47 -k RTR 
- -t 1.202443576 -s 1 -d 0 -p ack -e 60 -c 2 -a 0 -i 47 -k RTR
h -t 1.202443576 -s 1 -d 0 -p ack -e 60 -c 2 -a 0 -i 47 -k RTR
r -t 1.204469714 -s 0 -d 0 -p ack -e 40 -c 2 -a 0 -i 46 -k AGT
+ -t 1.204469714 -s 0 -d -1 -p tcp -e 1064 -c 2 -a 0 -i 48 -k AGT 
- -t 1.204469714 -s 0 -d -1 -p tcp -e 1064 -c 2 -a 0 -i 48 -k AGT
h -t 1.204469714 -s 0 -d -1 -p tcp -e 1064 -c 2 -a 0 -i 48 -k AGT
+ -t 1.204469714 -s 0 -d -1 -p tcp -e 1064 -c 2 -a 0 -i 49 -k AGT 
- -t 1.204469714 -s 0 -d -1 -p tcp -e 1064 -c 2 -a 0 -i 49 -k AGT
h -t 1.204469714 -s 0 -d -1 -p tcp -e 1064 -c 2 -a 0 -i 49 -k AGT
+ -t 1.204469714 -s 0 -d 1 -p tcp -e 1084 -c 2 -a 0 -i 48 -k RTR 
- -t 1.204469714 -s 0 -d 1 -p tcp -e 1084 -c 2 -a 0 -i 48 -k RTR
h -t 1.204469714 -s 0 -d 1 -p tcp -e 1084 -c 2 -a 0 -i 48 -k RTR
+ -t 1.204469714 -s 0 -d 1 -p tcp -e 1084 -c 2 -a 0 -i 49 -k RTR 
- -t 1.204469714 -s 0 -d 1 -p tcp -e 1084 -c 2 -a 0 -i 49 -k RTR
h -t 1.204469714 -s 0 -d 1 -p tcp -e 1084 -c 2 -a 0 -i 49 -k RTR
r -t 1.206776564 -s 0 -d 0 -p ack -e 40 -c 2 -a 0 -i 47 -k AGT
+ -t 1.206776564 -s 0 -d -1 -p tcp -e 1064 -c 2 -a 0 -i 50 -k AGT 
- -t 1.206776564 -s 0 -d -1 -p tcp -e 1064 -c 2 -a 0 -i 50 -k AGT
h -t 1.206776564 -s 0 -d -1 -p tcp -e 1064 -c 2 -a 0 -i 50 -k AGT
+ -t 1.206776564 -s 0 -d -1 -p tcp -e 1064 -c 2 -a 0 -i 51 -k AGT 
- -t 1.206776564 -s 0 -d -1 -p tcp -e 1064 -c 2 -a 0 -i 51 -k AGT
h -t 1.206776564 -s 0 -d -1 -p tcp -e 1064 -c 2 -a 0 -i 51 -k AGT
+ -t 1.206776564 -s 0 -d 1 -p tcp -e 1084 -c 2 -a 0 -i 50 -k RTR 
- -t 1.206776564 -s 0 -d 1 -p tcp -e 1084 -c 2 -a 0 -i 50 -k RTR
h -t 1.206776564 -s 0 -d 1 -p tcp -e 1084 -c 2 -a 0 -i 50 -k RTR
+ -t 1.206776564 -s 0 -d 1 -p tcp -e 1084 -c 2 -a 0 -i 51 -k RTR 
- -t 1.206776564 -s 0 -d 1 -p tcp -e 1084 -c 2 -a 0 -i 51 -k RTR
h -t 1.206776564 -s 0 -d 1 -p tcp -e 1084 -c 2 -a 0 -i 51 -k RTR
r -t 1.216974701 -s 1 -d 1 -p tcp -e 1064 -c 2 -a 0 -i 27 -k AGT
+ -t 1.216974701 -s 1 -d -1 -p ack -e 40 -c 2 -a 0 -i 52 -k AGT 
- -t 1.216974701 -s 1 -d -1 -p ack -e 40 -c 2 -a 0 -i 52 -k AGT
h -t 1.216974701 -s 1 -d -1 -p ack -e 40 -c 2 -a 0 -i 52 -k AGT
+ -t 1.216974701 -s 1 -d 0 -p ack -e 60 -c 2 -a 0 -i 52 -k RTR 
- -t 1.216974701 -s 1 -d 0 -p ack -e 60 -c 2 -a 0 -i 52 -k RTR
h -t 1.216974701 -s 1 -d 0 -p ack -e 60 -c 2 -a 0 -i 52 -k RTR
r -t 1.227473551 -s 1 -d 1 -p tcp -e 1064 -c 2 -a 0 -i 30 -k AGT
+ -t 1.227473551 -s 1 -d -1 -p ack -e 40 -c 2 -a 0 -i 53 -k AGT 
- -t 1.227473551 -s 1 -d -1 -p ack -e 40 -c 2 -a 0 -i 53 -k AGT
h -t 1.227473551 -s 1 -d -1 -p ack -e 40 -c 2 -a 0 -i 53 -k AGT
+ -t 1.227473551 -s 1 -d 0 -p ack -e 60 -c 2 -a 0 -i 53 -k RTR 
- -t 1.227473551 -s 1 -d 0 -p ack -e 60 -c 2 -a 0 -i 53 -k RTR
h -t 1.227473551 -s 1 -d 0 -p ack -e 60 -c 2 -a 0 -i 53 -k RTR
r -t 1.237672401 -s 1 -d 1 -p tcp -e 1064 -c 2 -a 0 -i 31 -k AGT
+ -t 1.237672401 -s 1 -d -1 -p ack -e 40 -c 2 -a 0 -i 54 -k AGT 
- -t 1.237672401 -s 1 -d -1 -p ack -e 40 -c 2 -a 0 -i 54 -k AGT
h -t 1.237672401 -s 1 -d -1 -p ack -e 40 -c 2 -a 0 -i 54 -k AGT
+ -t 1.237672401 -s 1 -d 0 -p ack -e 60 -c 2 -a 0 -i 54 -k RTR 
- -t 1.237672401 -s 1 -d 0 -p ack -e 60 -c 2 -a 0 -i 54 -k RTR
h -t 1.237672401 -s 1 -d 0 -p ack -e 60 -c 2 -a 0 -i 54 -k RTR
r -t 1.239738538 -s 0 -d 0 -p ack -e 40 -c 2 -a 0 -i 52 -k AGT
+ -t 1.239738538 -s 0 -d -1 -p tcp -e 1064 -c 2 -a 0 -i 55 -k AGT 
- -t 1.239738538 -s 0 -d -1 -p tcp -e 1064 -c 2 -a 0 -i 55 -k AGT
h -t 1.239738538 -s 0 -d -1 -p tcp -e 1064 -c 2 -a 0 -i 55 -k AGT
+ -t 1.239738538 -s 0 -d -1 -p tcp -e 1064 -c 2 -a 0 -i 56 -k AGT 
- -t 1.239738538 -s 0 -d -1 -p tcp -e 1064 -c 2 -a 0 -i 56 -k AGT
h -t 1.239738538 -s 0 -d -1 -p tcp -e 1064 -c 2 -a 0 -i 56 -k AGT
+ -t 1.239738538 -s 0 -d 1 -p tcp -e 1084 -c 2 -a 0 -i 55 -k RTR 
- -t 1.239738538 -s 0 -d 1 -p tcp -e 1084 -c 2 -a 0 -i 55 -k RTR
h -t 1.239738538 -s 0 -d 1 -p tcp -e 1084 -c 2 -a 0 -i 55 -k RTR
+ -t 1.239738538 -s 0 -d 1 -p tcp -e 1084 -c 2 -a 0 -i 56 -k RTR 
- -t 1.239738538 -s 0 -d 1 -p tcp -e 1084 -c 2 -a 0 -i 56 -k RTR
h -t 1.239738538 -s 0 -d 1 -p tcp -e 1084 -c 2 -a 0 -i 56 -k RTR
r -t 1.241825388 -s 0 -d 0 -p ack -e 40 -c 2 -a 0 -i 53 -k AGT
+ -t 1.241825388 -s 0 -d -1 -p tcp -e 1064 -c 2 -a 0 -i 57 -k AGT 
- -t 1.241825388 -s 0 -d -1 -p tcp -e 1064 -c 2 -a 0 -i 57 -k AGT
h -t 1.241825388 -s 0 -d -1 -p tcp -e 1064 -c 2 -a 0 -i 57 -k AGT
+ -t 1.241825388 -s 0 -d -1 -p tcp -e 1064 -c 2 -a 0 -i 58 -k AGT 
- -t 1.241825388 -s 0 -d -1 -p tcp -e 1064 -c 2 -a 0 -i 58 -k AGT
h -t 1.241825388 -s 0 -d -1 -p tcp -e 1064 -c 2 -a 0 -i 58 -k AGT
+ -t 1.241825388 -s 0 -d 1 -p tcp -e 1084 -c 2 -a 0 -i 57 -k RTR 
- -t 1.241825388 -s 0 -d 1 -p tcp -e 1084 -c 2 -a 0 -i 57 -k RTR
h -t 1.241825388 -s 0 -d 1 -p tcp -e 1084 -c 2 -a 0 -i 57 -k RTR
+ -t 1.241825388 -s 0 -d 1 -p tcp -e 1084 -c 2 -a 0 -i 58 -k RTR 
- -t 1.241825388 -s 0 -d 1 -p tcp -e 1084 -c 2 -a 0 -i 58 -k RTR
h -t 1.241825388 -s 0 -d 1 -p tcp -e 1084 -c 2 -a 0 -i 58 -k RTR
r -t 1.243812238 -s 0 -d 0 -p ack -e 40 -c 2 -a 0 -i 54 -k AGT
+ -t 1.243812238 -s 0 -d -1 -p tcp -e 1064 -c 2 -a 0 -i 59 -k AGT 
- -t 1.243812238 -s 0 -d -1 -p tcp -e 1064 -c 2 -a 0 -i 59 -k AGT
h -t 1.243812238 -s 0 -d -1 -p tcp -e 1064 -c 2 -a 0 -i 59 -k AGT
+ -t 1.243812238 -s 0 -d -1 -p tcp -e 1064 -c 2 -a 0 -i 60 -k AGT 
- -t 1.243812238 -s 0 -d -1 -p tcp -e 1064 -c 2 -a 0 -i 60 -k AGT
h -t 1.243812238 -s 0 -d -1 -p tcp -e 1064 -c 2 -a 0 -i 60 -k AGT
+ -t 1.243812238 -s 0 -d 1 -p tcp -e 1084 -c 2 -a 0 -i 59 -k RTR 
- -t 1.243812238 -s 0 -d 1 -p tcp -e 1084 -c 2 -a 0 -i 59 -k RTR
h -t 1.243812238 -s 0 -d 1 -p tcp -e 1084 -c 2 -a 0 -i 59 -k RTR
+ -t 1.243812238 -s 0 -d 1 -p tcp -e 1084 -c 2 -a 0 -i 60 -k RTR 
- -t 1.243812238 -s 0 -d 1 -p tcp -e 1084 -c 2 -a 0 -i 60 -k RTR
h -t 1.243812238 -s 0 -d 1 -p tcp -e 1084 -c 2 -a 0 -i 60 -k RTR
r -t 1.254090375 -s 1 -d 1 -p tcp -e 1064 -c 2 -a 0 -i 33 -k AGT
+ -t 1.254090375 -s 1 -d -1 -p ack -e 40 -c 2 -a 0 -i 61 -k AGT 
- -t 1.254090375 -s 1 -d -1 -p ack -e 40 -c 2 -a 0 -i 61 -k AGT
h -t 1.254090375 -s 1 -d -1 -p ack -e 40 -c 2 -a 0 -i 61 -k AGT
+ -t 1.254090375 -s 1 -d 0 -p ack -e 60 -c 2 -a 0 -i 61 -k RTR 
- -t 1.254090375 -s 1 -d 0 -p ack -e 60 -c 2 -a 0 -i 61 -k RTR
h -t 1.254090375 -s 1 -d 0 -p ack -e 60 -c 2 -a 0 -i 61 -k RTR
r -t 1.264689225 -s 1 -d 1 -p tcp -e 1064 -c 2 -a 0 -i 34 -k AGT
+ -t 1.264689225 -s 1 -d -1 -p ack -e 40 -c 2 -a 0 -i 62 -k AGT 
- -t 1.264689225 -s 1 -d -1 -p ack -e 40 -c 2 -a 0 -i 62 -k AGT
h -t 1.264689225 -s 1 -d -1 -p ack -e 40 -c 2 -a 0 -i 62 -k AGT
+ -t 1.264689225 -s 1 -d 0 -p ack -e 60 -c 2 -a 0 -i 62 -k RTR 
- -t 1.264689225 -s 1 -d 0 -p ack -e 60 -c 2 -a 0 -i 62 -k RTR
h -t 1.264689225 -s 1 -d 0 -p ack -e 60 -c 2 -a 0 -i 62 -k RTR
r -t 1.274888075 -s 1 -d 1 -p tcp -e 1064 -c 2 -a 0 -i 36 -k AGT
+ -t 1.274888075 -s 1 -d -1 -p ack -e 40 -c 2 -a 0 -i 63 -k AGT 
- -t 1.274888075 -s 1 -d -1 -p ack -e 40 -c 2 -a 0 -i 63 -k AGT
h -t 1.274888075 -s 1 -d -1 -p ack -e 40 -c 2 -a 0 -i 63 -k AGT
+ -t 1.274888075 -s 1 -d 0 -p ack -e 60 -c 2 -a 0 -i 63 -k RTR 
- -t 1.274888075 -s 1 -d 0 -p ack -e 60 -c 2 -a 0 -i 63 -k RTR
h -t 1.274888075 -s 1 -d 0 -p ack -e 60 -c 2 -a 0 -i 63 -k RTR
r -t 1.285126925 -s 1 -d 1 -p tcp -e 1064 -c 2 -a 0 -i 37 -k AGT
+ -t 1.285126925 -s 1 -d -1 -p ack -e 40 -c 2 -a 0 -i 64 -k AGT 
- -t 1.285126925 -s 1 -d -1 -p ack -e 40 -c 2 -a 0 -i 64 -k AGT
h -t 1.285126925 -s 1 -d -1 -p ack -e 40 -c 2 -a 0 -i 64 -k AGT
+ -t 1.285126925 -s 1 -d 0 -p ack -e 60 -c 2 -a 0 -i 64 -k RTR 
- -t 1.285126925 -s 1 -d 0 -p ack -e 60 -c 2 -a 0 -i 64 -k RTR
h -t 1.285126925 -s 1 -d 0 -p ack -e 60 -c 2 -a 0 -i 64 -k RTR
r -t 1.287213062 -s 0 -d 0 -p ack -e 40 -c 2 -a 0 -i 61 -k AGT
+ -t 1.287213062 -s 0 -d -1 -p tcp -e 1064 -c 2 -a 0 -i 65 -k AGT 
- -t 1.287213062 -s 0 -d -1 -p tcp -e 1064 -c 2 -a 0 -i 65 -k AGT
h -t 1.287213062 -s 0 -d -1 -p tcp -e 1064 -c 2 -a 0 -i 65 -k AGT
+ -t 1.287213062 -s 0 -d 1 -p tcp -e 1084 -c 2 -a 0 -i 65 -k RTR 
- -t 1.287213062 -s 0 -d 1 -p tcp -e 1084 -c 2 -a 0 -i 65 -k RTR
h -t 1.287213062 -s 0 -d 1 -p tcp -e 1084 -c 2 -a 0 -i 65 -k RTR
r -t 1.289219912 -s 0 -d 0 -p ack -e 40 -c 2 -a 0 -i 62 -k AGT
+ -t 1.289219912 -s 0 -d -1 -p tcp -e 1064 -c 2 -a 0 -i 66 -k AGT 
- -t 1.289219912 -s 0 -d -1 -p tcp -e 1064 -c 2 -a 0 -i 66 -k AGT
h -t 1.289219912 -s 0 -d -1 -p tcp -e 1064 -c 2 -a 0 -i 66 -k AGT
+ -t 1.289219912 -s 0 -d 1 -p tcp -e 1084 -c 2 -a 0 -i 66 -k RTR 
- -t 1.289219912 -s 0 -d 1 -p tcp -e 1084 -c 2 -a 0 -i 66 -k RTR
h -t 1.289219912 -s 0 -d 1 -p tcp -e 1084 -c 2 -a 0 -i 66 -k RTR
r -t 1.291226762 -s 0 -d 0 -p ack -e 40 -c 2 -a 0 -i 63 -k AGT
+ -t 1.291226762 -s 0 -d -1 -p tcp -e 1064 -c 2 -a 0 -i 67 -k AGT 
- -t 1.291226762 -s 0 -d -1 -p tcp -e 1064 -c 2 -a 0 -i 67 -k AGT
h -t 1.291226762 -s 0 -d -1 -p tcp -e 1064 -c 2 -a 0 -i 67 -k AGT
+ -t 1.291226762 -s 0 -d 1 -p tcp -e 1084 -c 2 -a 0 -i 67 -k RTR 
- -t 1.291226762 -s 0 -d 1 -p tcp -e 1084 -c 2 -a 0 -i 67 -k RTR
h -t 1.291226762 -s 0 -d 1 -p tcp -e 1084 -c 2 -a 0 -i 67 -k RTR
r -t 1.301544900 -s 1 -d 1 -p tcp -e 1064 -c 2 -a 0 -i 38 -k AGT
+ -t 1.301544900 -s 1 -d -1 -p ack -e 40 -c 2 -a 0 -i 68 -k AGT 
- -t 1.301544900 -s 1 -d -1 -p ack -e 40 -c 2 -a 0 -i 68 -k AGT
h -t 1.301544900 -s 1 -d -1 -p ack -e 40 -c 2 -a 0 -i 68 -k AGT
+ -t 1.301544900 -s 1 -d 0 -p ack -e 60 -c 2 -a 0 -i 68 -k RTR 
- -t 1.301544900 -s 1 -d 0 -p ack -e 60 -c 2 -a 0 -i 68 -k RTR
h -t 1.301544900 -s 1 -d 0 -p ack -e 60 -c 2 -a 0 -i 68 -k RTR
r -t 1.303851037 -s 0 -d 0 -p ack -e 40 -c 2 -a 0 -i 64 -k AGT
+ -t 1.303851037 -s 0 -d -1 -p tcp -e 1064 -c 2 -a 0 -i 69 -k AGT 
- -t 1.303851037 -s 0 -d -1 -p tcp -e 1064 -c 2 -a 0 -i 69 -k AGT
h -t 1.303851037 -s 0 -d -1 -p tcp -e 1064 -c 2 -a 0 -i 69 -k AGT
+ -t 1.303851037 -s 0 -d 1 -p tcp -e 1084 -c 2 -a 0 -i 69 -k RTR 
- -t 1.303851037 -s 0 -d 1 -p tcp -e 1084 -c 2 -a 0 -i 69 -k RTR
h -t 1.303851037 -s 0 -d 1 -p tcp -e 1084 -c 2 -a 0 -i 69 -k RTR
r -t 1.314109174 -s 1 -d 1 -p tcp -e 1064 -c 2 -a 0 -i 39 -k AGT
+ -t 1.314109174 -s 1 -d -1 -p ack -e 40 -c 2 -a 0 -i 70 -k AGT 
- -t 1.314109174 -s 1 -d -1 -p ack -e 40 -c 2 -a 0 -i 70 -k AGT