s 0.036772557 _1_ RTR  --- 0 message 32 [0 0 0 0] ------- [1:255 -1:255 32 0] 
r 0.038132782 _3_ RTR  --- 0 message 32 [0 ffffffff 1 800] ------- [1:255 -1:255 32 0] 
r 0.038132824 _7_ RTR  --- 0 message 32 [0 ffffffff 1 800] ------- [1:255 -1:255 32 0] 
r 0.038132938 _2_ RTR  --- 0 message 32 [0 ffffffff 1 800] ------- [1:255 -1:255 32 0] 
r 0.038132981 _9_ RTR  --- 0 message 32 [0 ffffffff 1 800] ------- [1:255 -1:255 32 0] 
r 0.038133184 _0_ RTR  --- 0 message 32 [0 ffffffff 1 800] ------- [1:255 -1:255 32 0] 
s 0.177383425 _2_ RTR  --- 1 message 32 [0 0 0 0] ------- [2:255 -1:255 32 0] 
r 0.178363599 _7_ RTR  --- 1 message 32 [0 ffffffff 2 800] ------- [2:255 -1:255 32 0] 
r 0.178363710 _9_ RTR  --- 1 message 32 [0 ffffffff 2 800] ------- [2:255 -1:255 32 0] 
r 0.178363806 _1_ RTR  --- 1 message 32 [0 ffffffff 2 800] ------- [2:255 -1:255 32 0] 
r 0.178364011 _3_ RTR  --- 1 message 32 [0 ffffffff 2 800] ------- [2:255 -1:255 32 0] 
s 0.470144892 _7_ RTR  --- 2 message 32 [0 0 0 0] ------- [7:255 -1:255 32 0] 
r 0.471165066 _2_ RTR  --- 2 message 32 [0 ffffffff 7 800] ------- [7:255 -1:255 32 0] 
r 0.471165160 _1_ RTR  --- 2 message 32 [0 ffffffff 7 800] ------- [7:255 -1:255 32 0] 
r 0.471165286 _9_ RTR  --- 2 message 32 [0 ffffffff 7 800] ------- [7:255 -1:255 32 0] 
r 0.471165331 _3_ RTR  --- 2 message 32 [0 ffffffff 7 800] ------- [7:255 -1:255 32 0] 
s 0.622244972 _9_ RTR  --- 3 message 32 [0 0 0 0] ------- [9:255 -1:255 32 0] 
r 0.623505258 _2_ RTR  --- 3 message 32 [0 ffffffff 9 800] ------- [9:255 -1:255 32 0] 
r 0.623505366 _7_ RTR  --- 3 message 32 [0 ffffffff 9 800] ------- [9:255 -1:255 32 0] 
r 0.623505396 _1_ RTR  --- 3 message 32 [0 ffffffff 9 800] ------- [9:255 -1:255 32 0] 
r 0.623505620 _3_ RTR  --- 3 message 32 [0 ffffffff 9 800] ------- [9:255 -1:255 32 0] 
r 0.623505665 _0_ RTR  --- 3 message 32 [0 ffffffff 9 800] ------- [9:255 -1:255 32 0] 
s 0.634544216 _5_ RTR  --- 4 message 32 [0 0 0 0] ------- [5:255 -1:255 32 0] 
r 0.635904580 _8_ RTR  --- 4 message 32 [0 ffffffff 5 800] ------- [5:255 -1:255 32 0] 
r 0.635904726 _6_ RTR  --- 4 message 32 [0 ffffffff 5 800] ------- [5:255 -1:255 32 0] 
r 0.635904854 _4_ RTR  --- 4 message 32 [0 ffffffff 5 800] ------- [5:255 -1:255 32 0] 
s 0.890857830 _3_ RTR  --- 5 message 32 [0 0 0 0] ------- [3:255 -1:255 32 0] 
r 0.892038055 _1_ RTR  --- 5 message 32 [0 ffffffff 3 800] ------- [3:255 -1:255 32 0] 
r 0.892038268 _7_ RTR  --- 5 message 32 [0 ffffffff 3 800] ------- [3:255 -1:255 32 0] 
r 0.892038416 _2_ RTR  --- 5 message 32 [0 ffffffff 3 800] ------- [3:255 -1:255 32 0] 
r 0.892038477 _9_ RTR  --- 5 message 32 [0 ffffffff 3 800] ------- [3:255 -1:255 32 0] 
r 0.892038497 _0_ RTR  --- 5 message 32 [0 ffffffff 3 800] ------- [3:255 -1:255 32 0] 
r 0.892038516 _8_ RTR  --- 5 message 32 [0 ffffffff 3 800] ------- [3:255 -1:255 32 0] 
s 1.000000000 _1_ AGT  --- 6 tcp 40 [0 0 0 0] ------- [1:0 2:0 32 0] [0 0] 0 0
r 1.000000000 _1_ RTR  --- 6 tcp 40 [0 0 0 0] ------- [1:0 2:0 32 0] [0 0] 0 0
s 1.000000000 _1_ RTR  --- 6 tcp 60 [0 0 0 0] ------- [1:0 2:0 32 2] [0 0] 0 0
r 1.004533668 _2_ AGT  --- 6 tcp 60 [13a 2 1 800] ------- [1:0 2:0 32 2] [0 0] 1 0
s 1.004533668 _2_ AGT  --- 7 ack 40 [0 0 0 0] ------- [2:0 1:0 32 0] [0 0] 0 0
r 1.004533668 _2_ RTR  --- 7 ack 40 [0 0 0 0] ------- [2:0 1:0 32 0] [0 0] 0 0
s 1.004533668 _2_ RTR  --- 7 ack 60 [0 0 0 0] ------- [2:0 1:0 32 1] [0 0] 0 0
r 1.006558811 _1_ AGT  --- 7 ack 60 [13a 1 2 800] ------- [2:0 1:0 32 1] [0 0] 1 0
s 1.006558811 _1_ AGT  --- 8 tcp 1064 [0 0 0 0] ------- [1:0 2:0 32 0] [1 0] 0 0
r 1.006558811 _1_ RTR  --- 8 tcp 1064 [0 0 0 0] ------- [1:0 2:0 32 0] [1 0] 0 0
s 1.006558811 _1_ RTR  --- 8 tcp 1084 [0 0 0 0] ------- [1:0 2:0 32 2] [1 0] 0 0
s 1.006558811 _1_ AGT  --- 9 tcp 1064 [0 0 0 0] ------- [1:0 2:0 32 0] [2 0] 0 0
r 1.006558811 _1_ RTR  --- 9 tcp 1064 [0 0 0 0] ------- [1:0 2:0 32 0] [2 0] 0 0
s 1.006558811 _1_ RTR  --- 9 tcp 1084 [0 0 0 0] ------- [1:0 2:0 32 2] [2 0] 0 0
r 1.017235954 _2_ AGT  --- 8 tcp 1084 [13a 2 1 800] ------- [1:0 2:0 32 2] [1 0] 1 0
s 1.017235954 _2_ AGT  --- 10 ack 40 [0 0 0 0] ------- [2:0 1:0 32 0] [1 0] 0 0
r 1.017235954 _2_ RTR  --- 10 ack 40 [0 0 0 0] ------- [2:0 1:0 32 0] [1 0] 0 0
s 1.017235954 _2_ RTR  --- 10 ack 60 [0 0 0 0] ------- [2:0 1:0 32 1] [1 0] 0 0
r 1.019421097 _1_ AGT  --- 10 ack 60 [13a 1 2 800] ------- [2:0 1:0 32 1] [1 0] 1 0
s 1.019421097 _1_ AGT  --- 11 tcp 1064 [0 0 0 0] ------- [1:0 2:0 32 0] [3 0] 0 0
r 1.019421097 _1_ RTR  --- 11 tcp 1064 [0 0 0 0] ------- [1:0 2:0 32 0] [3 0] 0 0
s 1.019421097 _1_ RTR  --- 11 tcp 1084 [0 0 0 0] ------- [1:0 2:0 32 2] [3 0] 0 0
s 1.019421097 _1_ AGT  --- 12 tcp 1064 [0 0 0 0] ------- [1:0 2:0 32 0] [4 0] 0 0
r 1.019421097 _1_ RTR  --- 12 tcp 1064 [0 0 0 0] ------- [1:0 2:0 32 0] [4 0] 0 0
s 1.019421097 _1_ RTR  --- 12 tcp 1084 [0 0 0 0] ------- [1:0 2:0 32 2] [4 0] 0 0
r 1.029998240 _2_ AGT  --- 9 tcp 1084 [13a 2 1 800] ------- [1:0 2:0 32 2] [2 0] 1 0
s 1.029998240 _2_ AGT  --- 13 ack 40 [0 0 0 0] ------- [2:0 1:0 32 0] [2 0] 0 0
r 1.029998240 _2_ RTR  --- 13 ack 40 [0 0 0 0] ------- [2:0 1:0 32 0] [2 0] 0 0
s 1.029998240 _2_ RTR  --- 13 ack 60 [0 0 0 0] ------- [2:0 1:0 32 1] [2 0] 0 0
r 1.032103384 _1_ AGT  --- 13 ack 60 [13a 1 2 800] ------- [2:0 1:0 32 1] [2 0] 1 0
s 1.032103384 _1_ AGT  --- 14 tcp 1064 [0 0 0 0] ------- [1:0 2:0 32 0] [5 0] 0 0
r 1.032103384 _1_ RTR  --- 14 tcp 1064 [0 0 0 0] ------- [1:0 2:0 32 0] [5 0] 0 0
s 1.032103384 _1_ RTR  --- 14 tcp 1084 [0 0 0 0] ------- [1:0 2:0 32 2] [5 0] 0 0
s 1.032103384 _1_ AGT  --- 15 tcp 1064 [0 0 0 0] ------- [1:0 2:0 32 0] [6 0] 0 0
r 1.032103384 _1_ RTR  --- 15 tcp 1064 [0 0 0 0] ------- [1:0 2:0 32 0] [6 0] 0 0
s 1.032103384 _1_ RTR  --- 15 tcp 1084 [0 0 0 0] ------- [1:0 2:0 32 2] [6 0] 0 0
r 1.042520527 _2_ AGT  --- 11 tcp 1084 [13a 2 1 800] ------- [1:0 2:0 32 2] [3 0] 1 0
s 1.042520527 _2_ AGT  --- 16 ack 40 [0 0 0 0] ------- [2:0 1:0 32 0] [3 0] 0 0
r 1.042520527 _2_ RTR  --- 16 ack 40 [0 0 0 0] ------- [2:0 1:0 32 0] [3 0] 0 0
s 1.042520527 _2_ RTR  --- 16 ack 60 [0 0 0 0] ------- [2:0 1:0 32 1] [3 0] 0 0
r 1.054224051 _2_ AGT  --- 12 tcp 1084 [13a 2 1 800] ------- [1:0 2:0 32 2] [4 0] 1 0
s 1.054224051 _2_ AGT  --- 17 ack 40 [0 0 0 0] ------- [2:0 1:0 32 0] [4 0] 0 0
r 1.054224051 _2_ RTR  --- 17 ack 40 [0 0 0 0] ------- [2:0 1:0 32 0] [4 0] 0 0
s 1.054224051 _2_ RTR  --- 17 ack 60 [0 0 0 0] ------- [2:0 1:0 32 1] [4 0] 0 0
r 1.057495957 _1_ AGT  --- 16 ack 60 [13a 1 2 800] ------- [2:0 1:0 32 1] [3 0] 1 0
s 1.057495957 _1_ AGT  --- 18 tcp 1064 [0 0 0 0] ------- [1:0 2:0 32 0] [7 0] 0 0
r 1.057495957 _1_ RTR  --- 18 tcp 1064 [0 0 0 0] ------- [1:0 2:0 32 0] [7 0] 0 0
s 1.057495957 _1_ RTR  --- 18 tcp 1084 [0 0 0 0] ------- [1:0 2:0 32 2] [7 0] 0 0
s 1.057495957 _1_ AGT  --- 19 tcp 1064 [0 0 0 0] ------- [1:0 2:0 32 0] [8 0] 0 0
r 1.057495957 _1_ RTR  --- 19 tcp 1064 [0 0 0 0] ------- [1:0 2:0 32 0] [8 0] 0 0
s 1.057495957 _1_ RTR  --- 19 tcp 1084 [0 0 0 0] ------- [1:0 2:0 32 2] [8 0] 0 0
r 1.059801481 _1_ AGT  --- 17 ack 60 [13a 1 2 800] ------- [2:0 1:0 32 1] [4 0] 1 0
s 1.059801481 _1_ AGT  --- 20 tcp 1064 [0 0 0 0] ------- [1:0 2:0 32 0] [9 0] 0 0
r 1.059801481 _1_ RTR  --- 20 tcp 1064 [0 0 0 0] ------- [1:0 2:0 32 0] [9 0] 0 0
s 1.059801481 _1_ RTR  --- 20 tcp 1084 [0 0 0 0] ------- [1:0 2:0 32 2] [9 0] 0 0
s 1.059801481 _1_ AGT  --- 21 tcp 1064 [0 0 0 0] ------- [1:0 2:0 32 0] [10 0] 0 0
r 1.059801481 _1_ RTR  --- 21 tcp 1064 [0 0 0 0] ------- [1:0 2:0 32 0] [10 0] 0 0
s 1.059801481 _1_ RTR  --- 21 tcp 1084 [0 0 0 0] ------- [1:0 2:0 32 2] [10 0] 0 0
r 1.070598624 _2_ AGT  --- 14 tcp 1084 [13a 2 1 800] ------- [1:0 2:0 32 2] [5 0] 1 0
s 1.070598624 _2_ AGT  --- 22 ack 40 [0 0 0 0] ------- [2:0 1:0 32 0] [5 0] 0 0
r 1.070598624 _2_ RTR  --- 22 ack 40 [0 0 0 0] ------- [2:0 1:0 32 0] [5 0] 0 0
s 1.070598624 _2_ RTR  --- 22 ack 60 [0 0 0 0] ------- [2:0 1:0 32 1] [5 0] 0 0
r 1.080856148 _2_ AGT  --- 15 tcp 1084 [13a 2 1 800] ------- [1:0 2:0 32 2] [6 0] 1 0
s 1.080856148 _2_ AGT  --- 23 ack 40 [0 0 0 0] ------- [2:0 1:0 32 0] [6 0] 0 0
r 1.080856148 _2_ RTR  --- 23 ack 40 [0 0 0 0] ------- [2:0 1:0 32 0] [6 0] 0 0
s 1.080856148 _2_ RTR  --- 23 ack 60 [0 0 0 0] ------- [2:0 1:0 32 1] [6 0] 0 0
r 1.082981292 _1_ AGT  --- 22 ack 60 [13a 1 2 800] ------- [2:0 1:0 32 1] [5 0] 1 0
s 1.082981292 _1_ AGT  --- 24 tcp 1064 [0 0 0 0] ------- [1:0 2:0 32 0] [11 0] 0 0
r 1.082981292 _1_ RTR  --- 24 tcp 1064 [0 0 0 0] ------- [1:0 2:0 32 0] [11 0] 0 0
s 1.082981292 _1_ RTR  --- 24 tcp 1084 [0 0 0 0] ------- [1:0 2:0 32 2] [11 0] 0 0
s 1.082981292 _1_ AGT  --- 25 tcp 1064 [0 0 0 0] ------- [1:0 2:0 32 0] [12 0] 0 0
r 1.082981292 _1_ RTR  --- 25 tcp 1064 [0 0 0 0] ------- [1:0 2:0 32 0] [12 0] 0 0
s 1.082981292 _1_ RTR  --- 25 tcp 1084 [0 0 0 0] ------- [1:0 2:0 32 2] [12 0] 0 0
r 1.084966816 _1_ AGT  --- 23 ack 60 [13a 1 2 800] ------- [2:0 1:0 32 1] [6 0] 1 0
s 1.084966816 _1_ AGT  --- 26 tcp 1064 [0 0 0 0] ------- [1:0 2:0 32 0] [13 0] 0 0
r 1.084966816 _1_ RTR  --- 26 tcp 1064 [0 0 0 0] ------- [1:0 2:0 32 0] [13 0] 0 0
s 1.084966816 _1_ RTR  --- 26 tcp 1084 [0 0 0 0] ------- [1:0 2:0 32 2] [13 0] 0 0
s 1.084966816 _1_ AGT  --- 27 tcp 1064 [0 0 0 0] ------- [1:0 2:0 32 0] [14 0] 0 0
r 1.084966816 _1_ RTR  --- 27 tcp 1064 [0 0 0 0] ------- [1:0 2:0 32 0] [14 0] 0 0
s 1.084966816 _1_ RTR  --- 27 tcp 1084 [0 0 0 0] ------- [1:0 2:0 32 2] [14 0] 0 0
r 1.095323959 _2_ AGT  --- 18 tcp 1084 [13a 2 1 800] ------- [1:0 2:0 32 2] [7 0] 1 0
s 1.095323959 _2_ AGT  --- 28 ack 40 [0 0 0 0] ------- [2:0 1:0 32 0] [7 0] 0 0
r 1.095323959 _2_ RTR  --- 28 ack 40 [0 0 0 0] ------- [2:0 1:0 32 0] [7 0] 0 0
s 1.095323959 _2_ RTR  --- 28 ack 60 [0 0 0 0] ------- [2:0 1:0 32 1] [7 0] 0 0
r 1.097389102 _1_ AGT  --- 28 ack 60 [13a 1 2 800] ------- [2:0 1:0 32 1] [7 0] 1 0
s 1.097389102 _1_ AGT  --- 29 tcp 1064 [0 0 0 0] ------- [1:0 2:0 32 0] [15 0] 0 0
r 1.097389102 _1_ RTR  --- 29 tcp 1064 [0 0 0 0] ------- [1:0 2:0 32 0] [15 0] 0 0
s 1.097389102 _1_ RTR  --- 29 tcp 1084 [0 0 0 0] ------- [1:0 2:0 32 2] [15 0] 0 0
s 1.097389102 _1_ AGT  --- 30 tcp 1064 [0 0 0 0] ------- [1:0 2:0 32 0] [16 0] 0 0
r 1.097389102 _1_ RTR  --- 30 tcp 1064 [0 0 0 0] ------- [1:0 2:0 32 0] [16 0] 0 0
s 1.097389102 _1_ RTR  --- 30 tcp 1084 [0 0 0 0] ------- [1:0 2:0 32 2] [16 0] 0 0
r 1.107806246 _2_ AGT  --- 19 tcp 1084 [13a 2 1 800] ------- [1:0 2:0 32 2] [8 0] 1 0
s 1.107806246 _2_ AGT  --- 31 ack 40 [0 0 0 0] ------- [2:0 1:0 32 0] [8 0] 0 0
r 1.107806246 _2_ RTR  --- 31 ack 40 [0 0 0 0] ------- [2:0 1:0 32 0] [8 0] 0 0
s 1.107806246 _2_ RTR  --- 31 ack 60 [0 0 0 0] ------- [2:0 1:0 32 1] [8 0] 0 0
r 1.118003770 _2_ AGT  --- 20 tcp 1084 [13a 2 1 800] ------- [1:0 2:0 32 2] [9 0] 1 0
s 1.118003770 _2_ AGT  --- 33 ack 40 [0 0 0 0] ------- [2:0 1:0 32 0] [9 0] 0 0
r 1.118003770 _2_ RTR  --- 33 ack 40 [0 0 0 0] ------- [2:0 1:0 32 0] [9 0] 0 0
s 1.118003770 _2_ RTR  --- 33 ack 60 [0 0 0 0] ------- [2:0 1:0 32 1] [9 0] 0 0
s 1.118710805 _0_ RTR  --- 32 message 32 [0 0 0 0] ------- [0:255 -1:255 32 0] 
r 1.120028913 _1_ AGT  --- 31 ack 60 [13a 1 2 800] ------- [2:0 1:0 32 1] [8 0] 1 0
s 1.120028913 _1_ AGT  --- 34 tcp 1064 [0 0 0 0] ------- [1:0 2:0 32 0] [17 0] 0 0
r 1.120028913 _1_ RTR  --- 34 tcp 1064 [0 0 0 0] ------- [1:0 2:0 32 0] [17 0] 0 0
s 1.120028913 _1_ RTR  --- 34 tcp 1084 [0 0 0 0] ------- [1:0 2:0 32 2] [17 0] 0 0
s 1.120028913 _1_ AGT  --- 35 tcp 1064 [0 0 0 0] ------- [1:0 2:0 32 0] [18 0] 0 0
r 1.120028913 _1_ RTR  --- 35 tcp 1064 [0 0 0 0] ------- [1:0 2:0 32 0] [18 0] 0 0
s 1.120028913 _1_ RTR  --- 35 tcp 1084 [0 0 0 0] ------- [1:0 2:0 32 2] [18 0] 0 0
r 1.122054437 _1_ AGT  --- 33 ack 60 [13a 1 2 800] ------- [2:0 1:0 32 1] [9 0] 1 0
s 1.122054437 _1_ AGT  --- 36 tcp 1064 [0 0 0 0] ------- [1:0 2:0 32 0] [19 0] 0 0
r 1.122054437 _1_ RTR  --- 36 tcp 1064 [0 0 0 0] ------- [1:0 2:0 32 0] [19 0] 0 0
s 1.122054437 _1_ RTR  --- 36 tcp 1084 [0 0 0 0] ------- [1:0 2:0 32 2] [19 0] 0 0
s 1.122054437 _1_ AGT  --- 37 tcp 1064 [0 0 0 0] ------- [1:0 2:0 32 0] [20 0] 0 0
r 1.122054437 _1_ RTR  --- 37 tcp 1064 [0 0 0 0] ------- [1:0 2:0 32 0] [20 0] 0 0
s 1.122054437 _1_ RTR  --- 37 tcp 1084 [0 0 0 0] ------- [1:0 2:0 32 2] [20 0] 0 0
r 1.132291581 _2_ AGT  --- 21 tcp 1084 [13a 2 1 800] ------- [1:0 2:0 32 2] [10 0] 1 0
s 1.132291581 _2_ AGT  --- 38 ack 40 [0 0 0 0] ------- [2:0 1:0 32 0] [10 0] 0 0
r 1.132291581 _2_ RTR  --- 38 ack 40 [0 0 0 0] ------- [2:0 1:0 32 0] [10 0] 0 0
s 1.132291581 _2_ RTR  --- 38 ack 60 [0 0 0 0] ------- [2:0 1:0 32 1] [10 0] 0 0
r 1.142589105 _2_ AGT  --- 24 tcp 1084 [13a 2 1 800] ------- [1:0 2:0 32 2] [11 0] 1 0
s 1.142589105 _2_ AGT  --- 39 ack 40 [0 0 0 0] ------- [2:0 1:0 32 0] [11 0] 0 0
r 1.142589105 _2_ RTR  --- 39 ack 40 [0 0 0 0] ------- [2:0 1:0 32 0] [11 0] 0 0
s 1.142589105 _2_ RTR  --- 39 ack 60 [0 0 0 0] ------- [2:0 1:0 32 1] [11 0] 0 0
r 1.152966629 _2_ AGT  --- 25 tcp 1084 [13a 2 1 800] ------- [1:0 2:0 32 2] [12 0] 1 0
s 1.152966629 _2_ AGT  --- 40 ack 40 [0 0 0 0] ------- [2:0 1:0 32 0] [12 0] 0 0
r 1.152966629 _2_ RTR  --- 40 ack 40 [0 0 0 0] ------- [2:0 1:0 32 0] [12 0] 0 0
s 1.152966629 _2_ RTR  --- 40 ack 60 [0 0 0 0] ------- [2:0 1:0 32 1] [12 0] 0 0
r 1.164090154 _2_ AGT  --- 26 tcp 1084 [13a 2 1 800] ------- [1:0 2:0 32 2] [13 0] 1 0
s 1.164090154 _2_ AGT  --- 41 ack 40 [0 0 0 0] ------- [2:0 1:0 32 0] [13 0] 0 0
r 1.164090154 _2_ RTR  --- 41 ack 40 [0 0 0 0] ------- [2:0 1:0 32 0] [13 0] 0 0
s 1.164090154 _2_ RTR  --- 41 ack 60 [0 0 0 0] ------- [2:0 1:0 32 1] [13 0] 0 0
r 1.174467678 _2_ AGT  --- 27 tcp 1084 [13a 2 1 800] ------- [1:0 2:0 32 2] [14 0] 1 0
s 1.174467678 _2_ AGT  --- 42 ack 40 [0 0 0 0] ------- [2:0 1:0 32 0] [14 0] 0 0
r 1.174467678 _2_ RTR  --- 42 ack 40 [0 0 0 0] ------- [2:0 1:0 32 0] [14 0] 0 0
s 1.174467678 _2_ RTR  --- 42 ack 60 [0 0 0 0] ------- [2:0 1:0 32 1] [14 0] 0 0
r 1.184705202 _2_ AGT  --- 29 tcp 1084 [13a 2 1 800] ------- [1:0 2:0 32 2] [15 0] 1 0
s 1.184705202 _2_ AGT  --- 43 ack 40 [0 0 0 0] ------- [2:0 1:0 32 0] [15 0] 0 0
r 1.184705202 _2_ RTR  --- 43 ack 40 [0 0 0 0] ------- [2:0 1:0 32 0] [15 0] 0 0
s 1.184705202 _2_ RTR  --- 43 ack 60 [0 0 0 0] ------- [2:0 1:0 32 1] [15 0] 0 0
r 1.195222727 _2_ AGT  --- 30 tcp 1084 [13a 2 1 800] ------- [1:0 2:0 32 2] [16 0] 1 0
s 1.195222727 _2_ AGT  --- 44 ack 40 [0 0 0 0] ------- [2:0 1:0 32 0] [16 0] 0 0
r 1.195222727 _2_ RTR  --- 44 ack 40 [0 0 0 0] ------- [2:0 1:0 32 0] [16 0] 0 0
s 1.195222727 _2_ RTR  --- 44 ack 60 [0 0 0 0] ------- [2:0 1:0 32 1] [16 0] 0 0
r 1.197267870 _1_ AGT  --- 38 ack 60 [13a 1 2 800] ------- [2:0 1:0 32 1] [10 0] 1 0
s 1.197267870 _1_ AGT  --- 45 tcp 1064 [0 0 0 0] ------- [1:0 2:0 32 0] [21 0] 0 0
r 1.197267870 _1_ RTR  --- 45 tcp 1064 [0 0 0 0] ------- [1:0 2:0 32 0] [21 0] 0 0
s 1.197267870 _1_ RTR  --- 45 tcp 1084 [0 0 0 0] ------- [1:0 2:0 32 2] [21 0] 0 0
s 1.197267870 _1_ AGT  --- 46 tcp 1064 [0 0 0 0] ------- [1:0 2:0 32 0] [22 0] 0 0
r 1.197267870 _1_ RTR  --- 46 tcp 1064 [0 0 0 0] ------- [1:0 2:0 32 0] [22 0] 0 0
s 1.197267870 _1_ RTR  --- 46 tcp 1084 [0 0 0 0] ------- [1:0 2:0 32 2] [22 0] 0 0
r 1.199373394 _1_ AGT  --- 39 ack 60 [13a 1 2 800] ------- [2:0 1:0 32 1] [11 0] 1 0
s 1.199373394 _1_ AGT  --- 47 tcp 1064 [0 0 0 0] ------- [1:0 2:0 32 0] [23 0] 0 0
r 1.199373394 _1_ RTR  --- 47 tcp 1064 [0 0 0 0] ------- [1:0 2:0 32 0] [23 0] 0 0
s 1.199373394 _1_ RTR  --- 47 tcp 1084 [0 0 0 0] ------- [1:0 2:0 32 2] [23 0] 0 0
s 1.199373394 _1_ AGT  --- 48 tcp 1064 [0 0 0 0] ------- [1:0 2:0 32 0] [24 0] 0 0
r 1.199373394 _1_ RTR  --- 48 tcp 1064 [0 0 0 0] ------- [1:0 2:0 32 0] [24 0] 0 0
s 1.199373394 _1_ RTR  --- 48 tcp 1084 [0 0 0 0] ------- [1:0 2:0 32 2] [24 0] 0 0
r 1.201418918 _1_ AGT  --- 40 ack 60 [13a 1 2 800] ------- [2:0 1:0 32 1] [12 0] 1 0
s 1.201418918 _1_ AGT  --- 49 tcp 1064 [0 0 0 0] ------- [1:0 2:0 32 0] [25 0] 0 0
r 1.201418918 _1_ RTR  --- 49 tcp 1064 [0 0 0 0] ------- [1:0 2:0 32 0] [25 0] 0 0
s 1.201418918 _1_ RTR  --- 49 tcp 1084 [0 0 0 0] ------- [1:0 2:0 32 2] [25 0] 0 0
s 1.201418918 _1_ AGT  --- 50 tcp 1064 [0 0 0 0] ------- [1:0 2:0 32 0] [26 0] 0 0
r 1.201418918 _1_ RTR  --- 50 tcp 1064 [0 0 0 0] ------- [1:0 2:0 32 0] [26 0] 0 0
s 1.201418918 _1_ RTR  --- 50 tcp 1084 [0 0 0 0] ------- [1:0 2:0 32 2] [26 0] 0 0
r 1.202734051 _1_ RTR  --- 32 message 32 [0 ffffffff 0 800] ------- [0:255 -1:255 32 0] 
r 1.202734090 _3_ RTR  --- 32 message 32 [0 ffffffff 0 800] ------- [0:255 -1:255 32 0] 
r 1.202734115 _9_ RTR  --- 32 message 32 [0 ffffffff 0 800] ------- [0:255 -1:255 32 0] 
r 1.212757194 _2_ AGT  --- 34 tcp 1084 [13a 2 1 800] ------- [1:0 2:0 32 2] [17 0] 1 0
s 1.212757194 _2_ AGT  --- 51 ack 40 [0 0 0 0] ------- [2:0 1:0 32 0] [17 0] 0 0
r 1.212757194 _2_ RTR  --- 51 ack 40 [0 0 0 0] ------- [2:0 1:0 32 0] [17 0] 0 0
s 1.212757194 _2_ RTR  --- 51 ack 60 [0 0 0 0] ------- [2:0 1:0 32 1] [17 0] 0 0
r 1.215102337 _1_ AGT  --- 41 ack 60 [13a 1 2 800] ------- [2:0 1:0 32 1] [13 0] 1 0
s 1.215102337 _1_ AGT  --- 52 tcp 1064 [0 0 0 0] ------- [1:0 2:0 32 0] [27 0] 0 0
r 1.215102337 _1_ RTR  --- 52 tcp 1064 [0 0 0 0] ------- [1:0 2:0 32 0] [27 0] 0 0
s 1.215102337 _1_ RTR  --- 52 tcp 1084 [0 0 0 0] ------- [1:0 2:0 32 2] [27 0] 0 0
s 1.215102337 _1_ AGT  --- 53 tcp 1064 [0 0 0 0] ------- [1:0 2:0 32 0] [28 0] 0 0
r 1.215102337 _1_ RTR  --- 53 tcp 1064 [0 0 0 0] ------- [1:0 2:0 32 0] [28 0] 0 0
s 1.215102337 _1_ RTR  --- 53 tcp 1084 [0 0 0 0] ------- [1:0 2:0 32 2] [28 0] 0 0
r 1.225539480 _2_ AGT  --- 35 tcp 1084 [13a 2 1 800] ------- [1:0 2:0 32 2] [18 0] 1 0
s 1.225539480 _2_ AGT  --- 54 ack 40 [0 0 0 0] ------- [2:0 1:0 32 0] [18 0] 0 0
r 1.225539480 _2_ RTR  --- 54 ack 40 [0 0 0 0] ------- [2:0 1:0 32 0] [18 0] 0 0
s 1.225539480 _2_ RTR  --- 54 ack 60 [0 0 0 0] ------- [2:0 1:0 32 1] [18 0] 0 0
r 1.227724624 _1_ AGT  --- 42 ack 60 [13a 1 2 800] ------- [2:0 1:0 32 1] [14 0] 1 0
s 1.227724624 _1_ AGT  --- 55 tcp 1064 [0 0 0 0] ------- [1:0 2:0 32 0] [29 0] 0 0
r 1.227724624 _1_ RTR  --- 55 tcp 1064 [0 0 0 0] ------- [1:0 2:0 32 0] [29 0] 0 0
s 1.227724624 _1_ RTR  --- 55 tcp 1084 [0 0 0 0] ------- [1:0 2:0 32 2] [29 0] 0 0
s 1.227724624 _1_ AGT  --- 56 tcp 1064 [0 0 0 0] ------- [1:0 2:0 32 0] [30 0] 0 0
r 1.227724624 _1_ RTR  --- 56 tcp 1064 [0 0 0 0] ------- [1:0 2:0 32 0] [30 0] 0 0
s 1.227724624 _1_ RTR  --- 56 tcp 1084 [0 0 0 0] ------- [1:0 2:0 32 2] [30 0] 0 0
r 1.230010148 _1_ AGT  --- 43 ack 60 [13a 1 2 800] ------- [2:0 1:0 32 1] [15 0] 1 0
s 1.230010148 _1_ AGT  --- 57 tcp 1064 [0 0 0 0] ------- [1:0 2:0 32 0] [31 0] 0 0
r 1.230010148 _1_ RTR  --- 57 tcp 1064 [0 0 0 0] ------- [1:0 2:0 32 0] [31 0] 0 0
s 1.230010148 _1_ RTR  --- 57 tcp 1084 [0 0 0 0] ------- [1:0 2:0 32 2] [31 0] 0 0
s 1.230010148 _1_ AGT  --- 58 tcp 1064 [0 0 0 0] ------- [1:0 2:0 32 0] [32 0] 0 0
r 1.230010148 _1_ RTR  --- 58 tcp 1064 [0 0 0 0] ------- [1:0 2:0 32 0] [32 0] 0 0
s 1.230010148 _1_ RTR  --- 58 tcp 1084 [0 0 0 0] ------- [1:0 2:0 32 2] [32 0] 0 0
r 1.240247291 _2_ AGT  --- 36 tcp 1084 [13a 2 1 800] ------- [1:0 2:0 32 2] [19 0] 1 0
s 1.240247291 _2_ AGT  --- 59 ack 40 [0 0 0 0] ------- [2:0 1:0 32 0] [19 0] 0 0
r 1.240247291 _2_ RTR  --- 59 ack 40 [0 0 0 0] ------- [2:0 1:0 32 0] [19 0] 0 0
s 1.240247291 _2_ RTR  --- 59 ack 60 [0 0 0 0] ------- [2:0 1:0 32 1] [19 0] 0 0
r 1.242492434 _1_ AGT  --- 44 ack 60 [13a 1 2 800] ------- [2:0 1:0 32 1] [16 0] 1 0
s 1.242492434 _1_ AGT  --- 60 tcp 1064 [0 0 0 0] ------- [1:0 2:0 32 0] [33 0] 0 0
r 1.242492434 _1_ RTR  --- 60 tcp 1064 [0 0 0 0] ------- [1:0 2:0 32 0] [33 0] 0 0
s 1.242492434 _1_ RTR  --- 60 tcp 1084 [0 0 0 0] ------- [1:0 2:0 32 2] [33 0] 0 0
s 1.242492434 _1_ AGT  --- 61 tcp 1064 [0 0 0 0] ------- [1:0 2:0 32 0] [34 0] 0 0
r 1.242492434 _1_ RTR  --- 61 tcp 1064 [0 0 0 0] ------- [1:0 2:0 32 0] [34 0] 0 0
s 1.242492434 _1_ RTR  --- 61 tcp 1084 [0 0 0 0] ------- [1:0 2:0 32 2] [34 0] 0 0
r 1.252729578 _2_ AGT  --- 37 tcp 1084 [13a 2 1 800] ------- [1:0 2:0 32 2] [20 0] 1 0
s 1.252729578 _2_ AGT  --- 62 ack 40 [0 0 0 0] ------- [2:0 1:0 32 0] [20 0] 0 0
r 1.252729578 _2_ RTR  --- 62 ack 40 [0 0 0 0] ------- [2:0 1:0 32 0] [20 0] 0 0
s 1.252729578 _2_ RTR  --- 62 ack 60 [0 0 0 0] ------- [2:0 1:0 32 1] [20 0] 0 0
r 1.262947102 _2_ AGT  --- 45 tcp 1084 [13a 2 1 800] ------- [1:0 2:0 32 2] [21 0] 1 0
s 1.262947102 _2_ AGT  --- 63 ack 40 [0 0 0 0] ------- [2:0 1:0 32 0] [21 0] 0 0
r 1.262947102 _2_ RTR  --- 63 ack 40 [0 0 0 0] ------- [2:0 1:0 32 0] [21 0] 0 0
s 1.262947102 _2_ RTR  --- 63 ack 60 [0 0 0 0] ------- [2:0 1:0 32 1] [21 0] 0 0
r 1.265192245 _1_ AGT  --- 51 ack 60 [13a 1 2 800] ------- [2:0 1:0 32 1] [17 0] 1 0
s 1.265192245 _1_ AGT  --- 64 tcp 1064 [0 0 0 0] ------- [1:0 2:0 32 0] [35 0] 0 0
r 1.265192245 _1_ RTR  --- 64 tcp 1064 [0 0 0 0] ------- [1:0 2:0 32 0] [35 0] 0 0
s 1.265192245 _1_ RTR  --- 64 tcp 1084 [0 0 0 0] ------- [1:0 2:0 32 2] [35 0] 0 0
s 1.265192245 _1_ AGT  --- 65 tcp 1064 [0 0 0 0] ------- [1:0 2:0 32 0] [36 0] 0 0
r 1.265192245 _1_ RTR  --- 65 tcp 1064 [0 0 0 0] ------- [1:0 2:0 32 0] [36 0] 0 0
s 1.265192245 _1_ RTR  --- 65 tcp 1084 [0 0 0 0] ------- [1:0 2:0 32 2] [36 0] 0 0
r 1.267397770 _1_ AGT  --- 54 ack 60 [13a 1 2 800] ------- [2:0 1:0 32 1] [18 0] 1 0
s 1.267397770 _1_ AGT  --- 66 tcp 1064 [0 0 0 0] ------- [1:0 2:0 32 0] [37 0] 0 0
r 1.267397770 _1_ RTR  --- 66 tcp 1064 [0 0 0 0] ------- [1:0 2:0 32 0] [37 0] 0 0
s 1.267397770 _1_ RTR  --- 66 tcp 1084 [0 0 0 0] ------- [1:0 2:0 32 2] [37 0] 0 0
s 1.267397770 _1_ AGT  --- 67 tcp 1064 [0 0 0 0] ------- [1:0 2:0 32 0] [38 0] 0 0
r 1.267397770 _1_ RTR  --- 67 tcp 1064 [0 0 0 0] ------- [1:0 2:0 32 0] [38 0] 0 0
s 1.267397770 _1_ RTR  --- 67 tcp 1084 [0 0 0 0] ------- [1:0 2:0 32 2] [38 0] 0 0
r 1.277694913 _2_ AGT  --- 46 tcp 1084 [13a 2 1 800] ------- [1:0 2:0 32 2] [22 0] 1 0
s 1.277694913 _2_ AGT  --- 68 ack 40 [0 0 0 0] ------- [2:0 1:0 32 0] [22 0] 0 0
r 1.277694913 _2_ RTR  --- 68 ack 40 [0 0 0 0] ------- [2:0 1:0 32 0] [22 0] 0 0
s 1.277694913 _2_ RTR  --- 68 ack 60 [0 0 0 0] ------- [2:0 1:0 32 1] [22 0] 0 0
r 1.279760056 _1_ AGT  --- 59 ack 60 [13a 1 2 800] ------- [2:0 1:0 32 1] [19 0] 1 0
s 1.279760056 _1_ AGT  --- 70 tcp 1064 [0 0 0 0] ------- [1:0 2:0 32 0] [39 0] 0 0
r 1.279760056 _1_ RTR  --- 70 tcp 1064 [0 0 0 0] ------- [1:0 2:0 32 0] [39 0] 0 0
s 1.279760056 _1_ RTR  --- 70 tcp 1084 [0 0 0 0] ------- [1:0 2:0 32 2] [39 0] 0 0
r 1.281865580 _1_ AGT  --- 62 ack 60 [13a 1 2 800] ------- [2:0 1:0 32 1] [20 0] 1 0
s 1.281865580 _1_ AGT  --- 71 tcp 1064 [0 0 0 0] ------- [1:0 2:0 32 0] [40 0] 0 0
r 1.281865580 _1_ RTR  --- 71 tcp 1064 [0 0 0 0] ------- [1:0 2:0 32 0] [40 0] 0 0
s 1.281865580 _1_ RTR  --- 71 tcp 1084 [0 0 0 0] ------- [1:0 2:0 32 2] [40 0] 0 0
r 1.284011105 _1_ AGT  --- 63 ack 60 [13a 1 2 800] ------- [2:0 1:0 32 1] [21 0] 1 0
s 1.284011105 _1_ AGT  --- 72 tcp 1064 [0 0 0 0] ------- [1:0 2:0 32 0] [41 0] 0 0
r 1.284011105 _1_ RTR  --- 72 tcp 1064 [0 0 0 0] ------- [1:0 2:0 32 0] [41 0] 0 0
s 1.284011105 _1_ RTR  --- 72 tcp 1084 [0 0 0 0] ------- [1:0 2:0 32 2] [41 0] 0 0
s 1.284687185 _8_ RTR  --- 69 message 32 [0 0 0 0] ------- [8:255 -1:255 32 0] 
r 1.294248248 _2_ AGT  --- 47 tcp 1084 [13a 2 1 800] ------- [1:0 2:0 32 2] [23 0] 1 0
s 1.294248248 _2_ AGT  --- 73 ack 40 [0 0 0 0] ------- [2:0 1:0 32 0] [23 0] 0 0
r 1.294248248 _2_ RTR  --- 73 ack 40 [0 0 0 0] ------- [2:0 1:0 32 0] [23 0] 0 0
s 1.294248248 _2_ RTR  --- 73 ack 60 [0 0 0 0] ------- [2:0 1:0 32 1] [23 0] 0 0
r 1.304565772 _2_ AGT  --- 48 tcp 1084 [13a 2 1 800] ------- [1:0 2:0 32 2] [24 0] 1 0
s 1.304565772 _2_ AGT  --- 74 ack 40 [0 0 0 0] ------- [2:0 1:0 32 0] [24 0] 0 0
r 1.304565772 _2_ RTR  --- 74 ack 40 [0 0 0 0] ------- [2:0 1:0 32 0] [24 0] 0 0
s 1.304565772 _2_ RTR  --- 74 ack 60 [0 0 0 0] ------- [2:0 1:0 32 1] [24 0] 0 0
r 1.306590915 _1_ AGT  --- 68 ack 60 [13a 1 2 800] ------- [2:0 1:0 32 1] [22 0] 1 0
s 1.306590915 _1_ AGT  --- 75 tcp 1064 [0 0 0 0] ------- [1:0 2:0 32 0] [42 0] 0 0
r 1.306590915 _1_ RTR  --- 75 tcp 1064 [0 0 0 0] ------- [1:0 2:0 32 0] [42 0] 0 0
s 1.306590915 _1_ RTR  --- 75 tcp 1084 [0 0 0 0] ------- [1:0 2:0 32 2] [42 0] 0 0
r 1.308896440 _1_ AGT  --- 73 ack 60 [13a 1 2 800] ------- [2:0 1:0 32 1] [23 0] 1 0
s 1.308896440 _1_ AGT  --- 76 tcp 1064 [0 0 0 0] ------- [1:0 2:0 32 0] [43 0] 0 0
r 1.308896440 _1_ RTR  --- 76 tcp 1064 [0 0 0 0] ------- [1:0 2:0 32 0] [43 0] 0 0
s 1.308896440 _1_ RTR  --- 76 tcp 1084 [0 0 0 0] ------- [1:0 2:0 32 2] [43 0] 0 0
r 1.319093583 _2_ AGT  --- 49 tcp 1084 [13a 2 1 800] ------- [1:0 2:0 32 2] [25 0] 1 0
s 1.319093583 _2_ AGT  --- 77 ack 40 [0 0 0 0] ------- [2:0 1:0 32 0] [25 0] 0 0
r 1.319093583 _2_ RTR  --- 77 ack 40 [0 0 0 0] ------- [2:0 1:0 32 0] [25 0] 0 0
s 1.319093583 _2_ RTR  --- 77 ack 60 [0 0 0 0] ------- [2:0 1:0 32 1] [25 0] 0 0
r 1.320543122 _6_ RTR  --- 69 message 32 [0 ffffffff 8 800] ------- [8:255 -1:255 32 0] 
r 1.320543211 _5_ RTR  --- 69 message 32 [0 ffffffff 8 800] ------- [8:255 -1:255 32 0] 
r 1.320543256 _4_ RTR  --- 69 message 32 [0 ffffffff 8 800] ------- [8:255 -1:255 32 0] 
r 1.320543533 _3_ RTR  --- 69 message 32 [0 ffffffff 8 800] ------- [8:255 -1:255 32 0] 
r 1.322639253 _1_ AGT  --- 74 ack 60 [13a 1 2 800] ------- [2:0 1:0 32 1] [24 0] 1 0
s 1.322639253 _1_ AGT  --- 78 tcp 1064 [0 0 0 0] ------- [1:0 2:0 32 0] [44 0] 0 0
r 1.322639253 _1_ RTR  --- 78 tcp 1064 [0 0 0 0] ------- [1:0 2:0 32 0] [44 0] 0 0
s 1.322639253 _1_ RTR  --- 78 tcp 1084 [0 0 0 0] ------- [1:0 2:0 32 2] [44 0] 0 0
r 1.332896397 _2_ AGT  --- 50 tcp 1084 [13a 2 1 800] ------- [1:0 2:0 32 2] [26 0] 1 0
s 1.332896397 _2_ AGT  --- 79 ack 40 [0 0 0 0] ------- [2:0 1:0 32 0] [26 0] 0 0
r 1.332896397 _2_ RTR  --- 79 ack 40 [0 0 0 0] ------- [2:0 1:0 32 0] [26 0] 0 0
s 1.332896397 _2_ RTR  --- 79 ack 60 [0 0 0 0] ------- [2:0 1:0 32 1] [26 0] 0 0
r 1.343093921 _2_ AGT  --- 52 tcp 1084 [13a 2 1 800] ------- [1:0 2:0 32 2] [27 0] 1 0
s 1.343093921 _2_ AGT  --- 80 ack 40 [0 0 0 0] ------- [2:0 1:0 32 0] [27 0] 0 0
r 1.343093921 _2_ RTR  --- 80 ack 40 [0 0 0 0] ------- [2:0 1:0 32 0] [27 0] 0 0
s 1.343093921 _2_ RTR  --- 80 ack 60 [0 0 0 0] ------- [2:0 1:0 32 1] [27 0] 0 0
r 1.345159064 _1_ AGT  --- 77 ack 60 [13a 1 2 800] ------- [2:0 1:0 32 1] [25 0] 1 0
s 1.345159064 _1_ AGT  --- 81 tcp 1064 [0 0 0 0] ------- [1:0 2:0 32 0] [45 0] 0 0
r 1.345159064 _1_ RTR  --- 81 tcp 1064 [0 0 0 0] ------- [1:0 2:0 32 0] [45 0] 0 0
s 1.345159064 _1_ RTR  --- 81 tcp 1084 [0 0 0 0] ------- [1:0 2:0 32 2] [45 0] 0 0
r 1.347244588 _1_ AGT  --- 79 ack 60 [13a 1 2 800] ------- [2:0 1:0 32 1] [26 0] 1 0
s 1.347244588 _1_ AGT  --- 82 tcp 1064 [0 0 0 0] ------- [1:0 2:0 32 0] [46 0] 0 0
r 1.347244588 _1_ RTR  --- 82 tcp 1064 [0 0 0 0] ------- [1:0 2:0 32 0] [46 0] 0 0
s 1.347244588 _1_ RTR  --- 82 tcp 1084 [0 0 0 0] ------- [1:0 2:0 32 2] [46 0] 0 0
r 1.349230113 _1_ AGT  --- 80 ack 60 [13a 1 2 800] ------- [2:0 1:0 32 1] [27 0] 1 0
s 1.349230113 _1_ AGT  --- 83 tcp 1064 [0 0 0 0] ------- [1:0 2:0 32 0] [47 0] 0 0
r 1.349230113 _1_ RTR  --- 83 tcp 1064 [0 0 0 0] ------- [1:0 2:0 32 0] [47 0] 0 0
s 1.349230113 _1_ RTR  --- 83 tcp 1084 [0 0 0 0] ------- [1:0 2:0 32 2] [47 0] 0 0
r 1.359507256 _2_ AGT  --- 53 tcp 1084 [13a 2 1 800] ------- [1:0 2:0 32 2] [28 0] 1 0
s 1.359507256 _2_ AGT  --- 84 ack 40 [0 0 0 0] ------- [2:0 1:0 32 0] [28 0] 0 0
r 1.359507256 _2_ RTR  --- 84 ack 40 [0 0 0 0] ------- [2:0 1:0 32 0] [28 0] 0 0
s 1.359507256 _2_ RTR  --- 84 ack 60 [0 0 0 0] ------- [2:0 1:0 32 1] [28 0] 0 0
r 1.362012399 _1_ AGT  --- 84 ack 60 [13a 1 2 800] ------- [2:0 1:0 32 1] [28 0] 1 0
s 1.362012399 _1_ AGT  --- 85 tcp 1064 [0 0 0 0] ------- [1:0 2:0 32 0] [48 0] 0 0
r 1.362012399 _1_ RTR  --- 85 tcp 1064 [0 0 0 0] ------- [1:0 2:0 32 0] [48 0] 0 0
s 1.362012399 _1_ RTR  --- 85 tcp 1084 [0 0 0 0] ------- [1:0 2:0 32 2] [48 0] 0 0
r 1.372289542 _2_ AGT  --- 55 tcp 1084 [13a 2 1 800] ------- [1:0 2:0 32 2] [29 0] 1 0
s 1.372289542 _2_ AGT  --- 86 ack 40 [0 0 0 0] ------- [2:0 1:0 32 0] [29 0] 0 0
r 1.372289542 _2_ RTR  --- 86 ack 40 [0 0 0 0] ------- [2:0 1:0 32 0] [29 0] 0 0
s 1.372289542 _2_ RTR  --- 86 ack 60 [0 0 0 0] ------- [2:0 1:0 32 1] [29 0] 0 0
r 1.382487067 _2_ AGT  --- 56 tcp 1084 [13a 2 1 800] ------- [1:0 2:0 32 2] [30 0] 1 0
s 1.382487067 _2_ AGT  --- 87 ack 40 [0 0 0 0] ------- [2:0 1:0 32 0] [30 0] 0 0
r 1.382487067 _2_ RTR  --- 87 ack 40 [0 0 0 0] ------- [2:0 1:0 32 0] [30 0] 0 0
s 1.382487067 _2_ RTR  --- 87 ack 60 [0 0 0 0] ------- [2:0 1:0 32 1] [30 0] 0 0
r 1.392684591 _2_ AGT  --- 57 tcp 1084 [13a 2 1 800] ------- [1:0 2:0 32 2] [31 0] 1 0
s 1.392684591 _2_ AGT  --- 88 ack 40 [0 0 0 0] ------- [2:0 1:0 32 0] [31 0] 0 0
r 1.392684591 _2_ RTR  --- 88 ack 40 [0 0 0 0] ------- [2:0 1:0 32 0] [31 0] 0 0
s 1.392684591 _2_ RTR  --- 88 ack 60 [0 0 0 0] ------- [2:0 1:0 32 1] [31 0] 0 0
r 1.402922115 _2_ AGT  --- 58 tcp 1084 [13a 2 1 800] ------- [1:0 2:0 32 2] [32 0] 1 0
s 1.402922115 _2_ AGT  --- 89 ack 40 [0 0 0 0] ------- [2:0 1:0 32 0] [32 0] 0 0
r 1.402922115 _2_ RTR  --- 89 ack 40 [0 0 0 0] ------- [2:0 1:0 32 0] [32 0] 0 0
s 1.402922115 _2_ RTR  --- 89 ack 60 [0 0 0 0] ------- [2:0 1:0 32 1] [32 0] 0 0
r 1.405147259 _1_ AGT  --- 86 ack 60 [13a 1 2 800] ------- [2:0 1:0 32 1] [29 0] 1 0
s 1.405147259 _1_ AGT  --- 90 tcp 1064 [0 0 0 0] ------- [1:0 2:0 32 0] [49 0] 0 0
r 1.405147259 _1_ RTR  --- 90 tcp 1064 [0 0 0 0] ------- [1:0 2:0 32 0] [49 0] 0 0
s 1.405147259 _1_ RTR  --- 90 tcp 1084 [0 0 0 0] ------- [1:0 2:0 32 2] [49 0] 0 0
r 1.407152783 _1_ AGT  --- 87 ack 60 [13a 1 2 800] ------- [2:0 1:0 32 1] [30 0] 1 0
s 1.407152783 _1_ AGT  --- 91 tcp 1064 [0 0 0 0] ------- [1:0 2:0 32 0] [50 0] 0 0
r 1.407152783 _1_ RTR  --- 91 tcp 1064 [0 0 0 0] ------- [1:0 2:0 32 0] [50 0] 0 0
s 1.407152783 _1_ RTR  --- 91 tcp 1084 [0 0 0 0] ------- [1:0 2:0 32 2] [50 0] 0 0
r 1.418896688 _2_ AGT  --- 60 tcp 1084 [13a 2 1 800] ------- [1:0 2:0 32 2] [33 0] 1 0
s 1.418896688 _2_ AGT  --- 92 ack 40 [0 0 0 0] ------- [2:0 1:0 32 0] [33 0] 0 0