n -t * -s 0  -x 288.30602266281193 -y 445.58947204872476 -Z 0 -z 30  -v circle -c black
n -t * -s 1  -x 150.33594479334351 -y 317.45863720656308 -Z 0 -z 30  -v circle -c black
n -t * -s 2  -x 40.571507318211495 -y 349.41947965390023 -Z 0 -z 30  -v circle -c black
n -t * -s 3  -x 196.36634141037538 -y 267.86629518860309 -Z 0 -z 30  -v circle -c black
n -t * -s 4  -x 366.27569439181855 -y 9.3240293251928072 -Z 0 -z 30  -v circle -c black
n -t * -s 5  -x 446.86863918177255 -y 182.80668681618135 -Z 0 -z 30  -v circle -c black
n -t * -s 6  -x 369.52898202907716 -y 50.65773359996161 -Z 0 -z 30  -v circle -c black
n -t * -s 7  -x 70.69936444549792 -y 306.95237699288521 -Z 0 -z 30  -v circle -c black
n -t * -s 8  -x 350.52223310364519 -y 131.17857865578426 -Z 0 -z 30  -v circle -c black
n -t * -s 9  -x 81.685474413300625 -y 424.51129314699739 -Z 0 -z 30  -v circle -c black
V -t * -v 1.0a5 -a 0
W -t * -x 500 -y 500
A -t * -n 1 -p 0 -o 0x7fffffff -c 30 -a 1
A -t * -h 1 -m 1073741823 -s 0
+ -t 0.036772557 -s 1 -d -1 -p message -e 32 -c 2 -a 0 -i 0 -k RTR 
- -t 0.036772557 -s 1 -d -1 -p message -e 32 -c 2 -a 0 -i 0 -k RTR
h -t 0.036772557 -s 1 -d -1 -p message -e 32 -c 2 -a 0 -i 0 -k RTR
r -t 0.038132782 -s 3 -d -1 -p message -e 32 -c 2 -a 0 -i 0 -k RTR
r -t 0.038132824 -s 7 -d -1 -p message -e 32 -c 2 -a 0 -i 0 -k RTR
r -t 0.038132938 -s 2 -d -1 -p message -e 32 -c 2 -a 0 -i 0 -k RTR
r -t 0.038132981 -s 9 -d -1 -p message -e 32 -c 2 -a 0 -i 0 -k RTR
r -t 0.038133184 -s 0 -d -1 -p message -e 32 -c 2 -a 0 -i 0 -k RTR
+ -t 0.177383425 -s 2 -d -1 -p message -e 32 -c 2 -a 0 -i 1 -k RTR 
- -t 0.177383425 -s 2 -d -1 -p message -e 32 -c 2 -a 0 -i 1 -k RTR
h -t 0.177383425 -s 2 -d -1 -p message -e 32 -c 2 -a 0 -i 1 -k RTR
r -t 0.178363599 -s 7 -d -1 -p message -e 32 -c 2 -a 0 -i 1 -k RTR
r -t 0.178363710 -s 9 -d -1 -p message -e 32 -c 2 -a 0 -i 1 -k RTR
r -t 0.178363806 -s 1 -d -1 -p message -e 32 -c 2 -a 0 -i 1 -k RTR
r -t 0.178364011 -s 3 -d -1 -p message -e 32 -c 2 -a 0 -i 1 -k RTR
+ -t 0.470144892 -s 7 -d -1 -p message -e 32 -c 2 -a 0 -i 2 -k RTR 
- -t 0.470144892 -s 7 -d -1 -p message -e 32 -c 2 -a 0 -i 2 -k RTR
h -t 0.470144892 -s 7 -d -1 -p message -e 32 -c 2 -a 0 -i 2 -k RTR
r -t 0.471165066 -s 2 -d -1 -p message -e 32 -c 2 -a 0 -i 2 -k RTR
r -t 0.471165160 -s 1 -d -1 -p message -e 32 -c 2 -a 0 -i 2 -k RTR
r -t 0.471165286 -s 9 -d -1 -p message -e 32 -c 2 -a 0 -i 2 -k RTR
r -t 0.471165331 -s 3 -d -1 -p message -e 32 -c 2 -a 0 -i 2 -k RTR
+ -t 0.622244972 -s 9 -d -1 -p message -e 32 -c 2 -a 0 -i 3 -k RTR 
- -t 0.622244972 -s 9 -d -1 -p message -e 32 -c 2 -a 0 -i 3 -k RTR
h -t 0.622244972 -s 9 -d -1 -p message -e 32 -c 2 -a 0 -i 3 -k RTR
r -t 0.623505258 -s 2 -d -1 -p message -e 32 -c 2 -a 0 -i 3 -k RTR
r -t 0.623505366 -s 7 -d -1 -p message -e 32 -c 2 -a 0 -i 3 -k RTR
r -t 0.623505396 -s 1 -d -1 -p message -e 32 -c 2 -a 0 -i 3 -k RTR
r -t 0.623505620 -s 3 -d -1 -p message -e 32 -c 2 -a 0 -i 3 -k RTR
r -t 0.623505665 -s 0 -d -1 -p message -e 32 -c 2 -a 0 -i 3 -k RTR
+ -t 0.634544216 -s 5 -d -1 -p message -e 32 -c 2 -a 0 -i 4 -k RTR 
- -t 0.634544216 -s 5 -d -1 -p message -e 32 -c 2 -a 0 -i 4 -k RTR
h -t 0.634544216 -s 5 -d -1 -p message -e 32 -c 2 -a 0 -i 4 -k RTR
r -t 0.635904580 -s 8 -d -1 -p message -e 32 -c 2 -a 0 -i 4 -k RTR
r -t 0.635904726 -s 6 -d -1 -p message -e 32 -c 2 -a 0 -i 4 -k RTR
r -t 0.635904854 -s 4 -d -1 -p message -e 32 -c 2 -a 0 -i 4 -k RTR
+ -t 0.890857830 -s 3 -d -1 -p message -e 32 -c 2 -a 0 -i 5 -k RTR 
- -t 0.890857830 -s 3 -d -1 -p message -e 32 -c 2 -a 0 -i 5 -k RTR
h -t 0.890857830 -s 3 -d -1 -p message -e 32 -c 2 -a 0 -i 5 -k RTR
r -t 0.892038055 -s 1 -d -1 -p message -e 32 -c 2 -a 0 -i 5 -k RTR
r -t 0.892038268 -s 7 -d -1 -p message -e 32 -c 2 -a 0 -i 5 -k RTR
r -t 0.892038416 -s 2 -d -1 -p message -e 32 -c 2 -a 0 -i 5 -k RTR
r -t 0.892038477 -s 9 -d -1 -p message -e 32 -c 2 -a 0 -i 5 -k RTR
r -t 0.892038497 -s 0 -d -1 -p message -e 32 -c 2 -a 0 -i 5 -k RTR
r -t 0.892038516 -s 8 -d -1 -p message -e 32 -c 2 -a 0 -i 5 -k RTR
+ -t 1.000000000 -s 1 -d -1 -p tcp -e 40 -c 2 -a 0 -i 6 -k AGT 
- -t 1.000000000 -s 1 -d -1 -p tcp -e 40 -c 2 -a 0 -i 6 -k AGT
h -t 1.000000000 -s 1 -d -1 -p tcp -e 40 -c 2 -a 0 -i 6 -k AGT
+ -t 1.000000000 -s 1 -d 2 -p tcp -e 60 -c 2 -a 0 -i 6 -k RTR 
- -t 1.000000000 -s 1 -d 2 -p tcp -e 60 -c 2 -a 0 -i 6 -k RTR
h -t 1.000000000 -s 1 -d 2 -p tcp -e 60 -c 2 -a 0 -i 6 -k RTR
r -t 1.004533668 -s 2 -d 2 -p tcp -e 60 -c 2 -a 0 -i 6 -k AGT
+ -t 1.004533668 -s 2 -d -1 -p ack -e 40 -c 2 -a 0 -i 7 -k AGT 
- -t 1.004533668 -s 2 -d -1 -p ack -e 40 -c 2 -a 0 -i 7 -k AGT
h -t 1.004533668 -s 2 -d -1 -p ack -e 40 -c 2 -a 0 -i 7 -k AGT
+ -t 1.004533668 -s 2 -d 1 -p ack -e 60 -c 2 -a 0 -i 7 -k RTR 
- -t 1.004533668 -s 2 -d 1 -p ack -e 60 -c 2 -a 0 -i 7 -k RTR
h -t 1.004533668 -s 2 -d 1 -p ack -e 60 -c 2 -a 0 -i 7 -k RTR
r -t 1.006558811 -s 1 -d 1 -p ack -e 60 -c 2 -a 0 -i 7 -k AGT
+ -t 1.006558811 -s 1 -d -1 -p tcp -e 1064 -c 2 -a 0 -i 8 -k AGT 
- -t 1.006558811 -s 1 -d -1 -p tcp -e 1064 -c 2 -a 0 -i 8 -k AGT
h -t 1.006558811 -s 1 -d -1 -p tcp -e 1064 -c 2 -a 0 -i 8 -k AGT
+ -t 1.006558811 -s 1 -d 2 -p tcp -e 1084 -c 2 -a 0 -i 8 -k RTR 
- -t 1.006558811 -s 1 -d 2 -p tcp -e 1084 -c 2 -a 0 -i 8 -k RTR
h -t 1.006558811 -s 1 -d 2 -p tcp -e 1084 -c 2 -a 0 -i 8 -k RTR
+ -t 1.006558811 -s 1 -d -1 -p tcp -e 1064 -c 2 -a 0 -i 9 -k AGT 
- -t 1.006558811 -s 1 -d -1 -p tcp -e 1064 -c 2 -a 0 -i 9 -k AGT
h -t 1.006558811 -s 1 -d -1 -p tcp -e 1064 -c 2 -a 0 -i 9 -k AGT
+ -t 1.006558811 -s 1 -d 2 -p tcp -e 1084 -c 2 -a 0 -i 9 -k RTR 
- -t 1.006558811 -s 1 -d 2 -p tcp -e 1084 -c 2 -a 0 -i 9 -k RTR
h -t 1.006558811 -s 1 -d 2 -p tcp -e 1084 -c 2 -a 0 -i 9 -k RTR
r -t 1.017235954 -s 2 -d 2 -p tcp -e 1084 -c 2 -a 0 -i 8 -k AGT
+ -t 1.017235954 -s 2 -d -1 -p ack -e 40 -c 2 -a 0 -i 10 -k AGT 
- -t 1.017235954 -s 2 -d -1 -p ack -e 40 -c 2 -a 0 -i 10 -k AGT
h -t 1.017235954 -s 2 -d -1 -p ack -e 40 -c 2 -a 0 -i 10 -k AGT
+ -t 1.017235954 -s 2 -d 1 -p ack -e 60 -c 2 -a 0 -i 10 -k RTR 
- -t 1.017235954 -s 2 -d 1 -p ack -e 60 -c 2 -a 0 -i 10 -k RTR
h -t 1.017235954 -s 2 -d 1 -p ack -e 60 -c 2 -a 0 -i 10 -k RTR
r -t 1.019421097 -s 1 -d 1 -p ack -e 60 -c 2 -a 0 -i 10 -k AGT
+ -t 1.019421097 -s 1 -d -1 -p tcp -e 1064 -c 2 -a 0 -i 11 -k AGT 
- -t 1.019421097 -s 1 -d -1 -p tcp -e 1064 -c 2 -a 0 -i 11 -k AGT
h -t 1.019421097 -s 1 -d -1 -p tcp -e 1064 -c 2 -a 0 -i 11 -k AGT
+ -t 1.019421097 -s 1 -d 2 -p tcp -e 1084 -c 2 -a 0 -i 11 -k RTR 
- -t 1.019421097 -s 1 -d 2 -p tcp -e 1084 -c 2 -a 0 -i 11 -k RTR
h -t 1.019421097 -s 1 -d 2 -p tcp -e 1084 -c 2 -a 0 -i 11 -k RTR
+ -t 1.019421097 -s 1 -d -1 -p tcp -e 1064 -c 2 -a 0 -i 12 -k AGT 
- -t 1.019421097 -s 1 -d -1 -p tcp -e 1064 -c 2 -a 0 -i 12 -k AGT
h -t 1.019421097 -s 1 -d -1 -p tcp -e 1064 -c 2 -a 0 -i 12 -k AGT
+ -t 1.019421097 -s 1 -d 2 -p tcp -e 1084 -c 2 -a 0 -i 12 -k RTR 
- -t 1.019421097 -s 1 -d 2 -p tcp -e 1084 -c 2 -a 0 -i 12 -k RTR
h -t 1.019421097 -s 1 -d 2 -p tcp -e 1084 -c 2 -a 0 -i 12 -k RTR
r -t 1.029998240 -s 2 -d 2 -p tcp -e 1084 -c 2 -a 0 -i 9 -k AGT
+ -t 1.029998240 -s 2 -d -1 -p ack -e 40 -c 2 -a 0 -i 13 -k AGT 
- -t 1.029998240 -s 2 -d -1 -p ack -e 40 -c 2 -a 0 -i 13 -k AGT
h -t 1.029998240 -s 2 -d -1 -p ack -e 40 -c 2 -a 0 -i 13 -k AGT
+ -t 1.029998240 -s 2 -d 1 -p ack -e 60 -c 2 -a 0 -i 13 -k RTR 
- -t 1.029998240 -s 2 -d 1 -p ack -e 60 -c 2 -a 0 -i 13 -k RTR
h -t 1.029998240 -s 2 -d 1 -p ack -e 60 -c 2 -a 0 -i 13 -k RTR
r -t 1.032103384 -s 1 -d 1 -p ack -e 60 -c 2 -a 0 -i 13 -k AGT
+ -t 1.032103384 -s 1 -d -1 -p tcp -e 1064 -c 2 -a 0 -i 14 -k AGT 
- -t 1.032103384 -s 1 -d -1 -p tcp -e 1064 -c 2 -a 0 -i 14 -k AGT
h -t 1.032103384 -s 1 -d -1 -p tcp -e 1064 -c 2 -a 0 -i 14 -k AGT
+ -t 1.032103384 -s 1 -d 2 -p tcp -e 1084 -c 2 -a 0 -i 14 -k RTR 
- -t 1.032103384 -s 1 -d 2 -p tcp -e 1084 -c 2 -a 0 -i 14 -k RTR
h -t 1.032103384 -s 1 -d 2 -p tcp -e 1084 -c 2 -a 0 -i 14 -k RTR
+ -t 1.032103384 -s 1 -d -1 -p tcp -e 1064 -c 2 -a 0 -i 15 -k AGT 
- -t 1.032103384 -s 1 -d -1 -p tcp -e 1064 -c 2 -a 0 -i 15 -k AGT
h -t 1.032103384 -s 1 -d -1 -p tcp -e 1064 -c 2 -a 0 -i 15 -k AGT
+ -t 1.032103384 -s 1 -d 2 -p tcp -e 1084 -c 2 -a 0 -i 15 -k RTR 
- -t 1.032103384 -s 1 -d 2 -p tcp -e 1084 -c 2 -a 0 -i 15 -k RTR
h -t 1.032103384 -s 1 -d 2 -p tcp -e 1084 -c 2 -a 0 -i 15 -k RTR
r -t 1.042520527 -s 2 -d 2 -p tcp -e 1084 -c 2 -a 0 -i 11 -k AGT
+ -t 1.042520527 -s 2 -d -1 -p ack -e 40 -c 2 -a 0 -i 16 -k AGT 
- -t 1.042520527 -s 2 -d -1 -p ack -e 40 -c 2 -a 0 -i 16 -k AGT
h -t 1.042520527 -s 2 -d -1 -p ack -e 40 -c 2 -a 0 -i 16 -k AGT
+ -t 1.042520527 -s 2 -d 1 -p ack -e 60 -c 2 -a 0 -i 16 -k RTR 
- -t 1.042520527 -s 2 -d 1 -p ack -e 60 -c 2 -a 0 -i 16 -k RTR
h -t 1.042520527 -s 2 -d 1 -p ack -e 60 -c 2 -a 0 -i 16 -k RTR
r -t 1.054224051 -s 2 -d 2 -p tcp -e 1084 -c 2 -a 0 -i 12 -k AGT
+ -t 1.054224051 -s 2 -d -1 -p ack -e 40 -c 2 -a 0 -i 17 -k AGT 
- -t 1.054224051 -s 2 -d -1 -p ack -e 40 -c 2 -a 0 -i 17 -k AGT
h -t 1.054224051 -s 2 -d -1 -p ack -e 40 -c 2 -a 0 -i 17 -k AGT
+ -t 1.054224051 -s 2 -d 1 -p ack -e 60 -c 2 -a 0 -i 17 -k RTR 
- -t 1.054224051 -s 2 -d 1 -p ack -e 60 -c 2 -a 0 -i 17 -k RTR
h -t 1.054224051 -s 2 -d 1 -p ack -e 60 -c 2 -a 0 -i 17 -k RTR
r -t 1.057495957 -s 1 -d 1 -p ack -e 60 -c 2 -a 0 -i 16 -k AGT
+ -t 1.057495957 -s 1 -d -1 -p tcp -e 1064 -c 2 -a 0 -i 18 -k AGT 
- -t 1.057495957 -s 1 -d -1 -p tcp -e 1064 -c 2 -a 0 -i 18 -k AGT
h -t 1.057495957 -s 1 -d -1 -p tcp -e 1064 -c 2 -a 0 -i 18 -k AGT
+ -t 1.057495957 -s 1 -d 2 -p tcp -e 1084 -c 2 -a 0 -i 18 -k RTR 
- -t 1.057495957 -s 1 -d 2 -p tcp -e 1084 -c 2 -a 0 -i 18 -k RTR
h -t 1.057495957 -s 1 -d 2 -p tcp -e 1084 -c 2 -a 0 -i 18 -k RTR
+ -t 1.057495957 -s 1 -d -1 -p tcp -e 1064 -c 2 -a 0 -i 19 -k AGT 
- -t 1.057495957 -s 1 -d -1 -p tcp -e 1064 -c 2 -a 0 -i 19 -k AGT
h -t 1.057495957 -s 1 -d -1 -p tcp -e 1064 -c 2 -a 0 -i 19 -k AGT
+ -t 1.057495957 -s 1 -d 2 -p tcp -e 1084 -c 2 -a 0 -i 19 -k RTR 
- -t 1.057495957 -s 1 -d 2 -p tcp -e 1084 -c 2 -a 0 -i 19 -k RTR
h -t 1.057495957 -s 1 -d 2 -p tcp -e 1084 -c 2 -a 0 -i 19 -k RTR
r -t 1.059801481 -s 1 -d 1 -p ack -e 60 -c 2 -a 0 -i 17 -k AGT
+ -t 1.059801481 -s 1 -d -1 -p tcp -e 1064 -c 2 -a 0 -i 20 -k AGT 
- -t 1.059801481 -s 1 -d -1 -p tcp -e 1064 -c 2 -a 0 -i 20 -k AGT
h -t 1.059801481 -s 1 -d -1 -p tcp -e 1064 -c 2 -a 0 -i 20 -k AGT
+ -t 1.059801481 -s 1 -d 2 -p tcp -e 1084 -c 2 -a 0 -i 20 -k RTR 
- -t 1.059801481 -s 1 -d 2 -p tcp -e 1084 -c 2 -a 0 -i 20 -k RTR
h -t 1.059801481 -s 1 -d 2 -p tcp -e 1084 -c 2 -a 0 -i 20 -k RTR
+ -t 1.059801481 -s 1 -d -1 -p tcp -e 1064 -c 2 -a 0 -i 21 -k AGT 
- -t 1.059801481 -s 1 -d -1 -p tcp -e 1064 -c 2 -a 0 -i 21 -k AGT
h -t 1.059801481 -s 1 -d -1 -p tcp -e 1064 -c 2 -a 0 -i 21 -k AGT
+ -t 1.059801481 -s 1 -d 2 -p tcp -e 1084 -c 2 -a 0 -i 21 -k RTR 
- -t 1.059801481 -s 1 -d 2 -p tcp -e 1084 -c 2 -a 0 -i 21 -k RTR
h -t 1.059801481 -s 1 -d 2 -p tcp -e 1084 -c 2 -a 0 -i 21 -k RTR
r -t 1.070598624 -s 2 -d 2 -p tcp -e 1084 -c 2 -a 0 -i 14 -k AGT
+ -t 1.070598624 -s 2 -d -1 -p ack -e 40 -c 2 -a 0 -i 22 -k AGT 
- -t 1.070598624 -s 2 -d -1 -p ack -e 40 -c 2 -a 0 -i 22 -k AGT
h -t 1.070598624 -s 2 -d -1 -p ack -e 40 -c 2 -a 0 -i 22 -k AGT
+ -t 1.070598624 -s 2 -d 1 -p ack -e 60 -c 2 -a 0 -i 22 -k RTR 
- -t 1.070598624 -s 2 -d 1 -p ack -e 60 -c 2 -a 0 -i 22 -k RTR
h -t 1.070598624 -s 2 -d 1 -p ack -e 60 -c 2 -a 0 -i 22 -k RTR
r -t 1.080856148 -s 2 -d 2 -p tcp -e 1084 -c 2 -a 0 -i 15 -k AGT
+ -t 1.080856148 -s 2 -d -1 -p ack -e 40 -c 2 -a 0 -i 23 -k AGT 
- -t 1.080856148 -s 2 -d -1 -p ack -e 40 -c 2 -a 0 -i 23 -k AGT
h -t 1.080856148 -s 2 -d -1 -p ack -e 40 -c 2 -a 0 -i 23 -k AGT
+ -t 1.080856148 -s 2 -d 1 -p ack -e 60 -c 2 -a 0 -i 23 -k RTR 
- -t 1.080856148 -s 2 -d 1 -p ack -e 60 -c 2 -a 0 -i 23 -k RTR
h -t 1.080856148 -s 2 -d 1 -p ack -e 60 -c 2 -a 0 -i 23 -k RTR
r -t 1.082981292 -s 1 -d 1 -p ack -e 60 -c 2 -a 0 -i 22 -k AGT
+ -t 1.082981292 -s 1 -d -1 -p tcp -e 1064 -c 2 -a 0 -i 24 -k AGT 
- -t 1.082981292 -s 1 -d -1 -p tcp -e 1064 -c 2 -a 0 -i 24 -k AGT
h -t 1.082981292 -s 1 -d -1 -p tcp -e 1064 -c 2 -a 0 -i 24 -k AGT
+ -t 1.082981292 -s 1 -d 2 -p tcp -e 1084 -c 2 -a 0 -i 24 -k RTR 
- -t 1.082981292 -s 1 -d 2 -p tcp -e 1084 -c 2 -a 0 -i 24 -k RTR
h -t 1.082981292 -s 1 -d 2 -p tcp -e 1084 -c 2 -a 0 -i 24 -k RTR
+ -t 1.082981292 -s 1 -d -1 -p tcp -e 1064 -c 2 -a 0 -i 25 -k AGT 
- -t 1.082981292 -s 1 -d -1 -p tcp -e 1064 -c 2 -a 0 -i 25 -k AGT
h -t 1.082981292 -s 1 -d -1 -p tcp -e 1064 -c 2 -a 0 -i 25 -k AGT
+ -t 1.082981292 -s 1 -d 2 -p tcp -e 1084 -c 2 -a 0 -i 25 -k RTR 
- -t 1.082981292 -s 1 -d 2 -p tcp -e 1084 -c 2 -a 0 -i 25 -k RTR
h -t 1.082981292 -s 1 -d 2 -p tcp -e 1084 -c 2 -a 0 -i 25 -k RTR
r -t 1.084966816 -s 1 -d 1 -p ack -e 60 -c 2 -a 0 -i 23 -k AGT
+ -t 1.084966816 -s 1 -d -1 -p tcp -e 1064 -c 2 -a 0 -i 26 -k AGT 
- -t 1.084966816 -s 1 -d -1 -p tcp -e 1064 -c 2 -a 0 -i 26 -k AGT
h -t 1.084966816 -s 1 -d -1 -p tcp -e 1064 -c 2 -a 0 -i 26 -k AGT
+ -t 1.084966816 -s 1 -d 2 -p tcp -e 1084 -c 2 -a 0 -i 26 -k RTR 
- -t 1.084966816 -s 1 -d 2 -p tcp -e 1084 -c 2 -a 0 -i 26 -k RTR
h -t 1.084966816 -s 1 -d 2 -p tcp -e 1084 -c 2 -a 0 -i 26 -k RTR
+ -t 1.084966816 -s 1 -d -1 -p tcp -e 1064 -c 2 -a 0 -i 27 -k AGT 
- -t 1.084966816 -s 1 -d -1 -p tcp -e 1064 -c 2 -a 0 -i 27 -k AGT
h -t 1.084966816 -s 1 -d -1 -p tcp -e 1064 -c 2 -a 0 -i 27 -k AGT
+ -t 1.084966816 -s 1 -d 2 -p tcp -e 1084 -c 2 -a 0 -i 27 -k RTR 
- -t 1.084966816 -s 1 -d 2 -p tcp -e 1084 -c 2 -a 0 -i 27 -k RTR
h -t 1.084966816 -s 1 -d 2 -p tcp -e 1084 -c 2 -a 0 -i 27 -k RTR
r -t 1.095323959 -s 2 -d 2 -p tcp -e 1084 -c 2 -a 0 -i 18 -k AGT
+ -t 1.095323959 -s 2 -d -1 -p ack -e 40 -c 2 -a 0 -i 28 -k AGT 
- -t 1.095323959 -s 2 -d -1 -p ack -e 40 -c 2 -a 0 -i 28 -k AGT
h -t 1.095323959 -s 2 -d -1 -p ack -e 40 -c 2 -a 0 -i 28 -k AGT
+ -t 1.095323959 -s 2 -d 1 -p ack -e 60 -c 2 -a 0 -i 28 -k RTR 
- -t 1.095323959 -s 2 -d 1 -p ack -e 60 -c 2 -a 0 -i 28 -k RTR
h -t 1.095323959 -s 2 -d 1 -p ack -e 60 -c 2 -a 0 -i 28 -k RTR
r -t 1.097389102 -s 1 -d 1 -p ack -e 60 -c 2 -a 0 -i 28 -k AGT
+ -t 1.097389102 -s 1 -d -1 -p tcp -e 1064 -c 2 -a 0 -i 29 -k AGT 
- -t 1.097389102 -s 1 -d -1 -p tcp -e 1064 -c 2 -a 0 -i 29 -k AGT
h -t 1.097389102 -s 1 -d -1 -p tcp -e 1064 -c 2 -a 0 -i 29 -k AGT
+ -t 1.097389102 -s 1 -d 2 -p tcp -e 1084 -c 2 -a 0 -i 29 -k RTR 
- -t 1.097389102 -s 1 -d 2 -p tcp -e 1084 -c 2 -a 0 -i 29 -k RTR
h -t 1.097389102 -s 1 -d 2 -p tcp -e 1084 -c 2 -a 0 -i 29 -k RTR
+ -t 1.097389102 -s 1 -d -1 -p tcp -e 1064 -c 2 -a 0 -i 30 -k AGT 
- -t 1.097389102 -s 1 -d -1 -p tcp -e 1064 -c 2 -a 0 -i 30 -k AGT
h -t 1.097389102 -s 1 -d -1 -p tcp -e 1064 -c 2 -a 0 -i 30 -k AGT
+ -t 1.097389102 -s 1 -d 2 -p tcp -e 1084 -c 2 -a 0 -i 30 -k RTR 
- -t 1.097389102 -s 1 -d 2 -p tcp -e 1084 -c 2 -a 0 -i 30 -k RTR
h -t 1.097389102 -s 1 -d 2 -p tcp -e 1084 -c 2 -a 0 -i 30 -k RTR
r -t 1.107806246 -s 2 -d 2 -p tcp -e 1084 -c 2 -a 0 -i 19 -k AGT
+ -t 1.107806246 -s 2 -d -1 -p ack -e 40 -c 2 -a 0 -i 31 -k AGT 
- -t 1.107806246 -s 2 -d -1 -p ack -e 40 -c 2 -a 0 -i 31 -k AGT
h -t 1.107806246 -s 2 -d -1 -p ack -e 40 -c 2 -a 0 -i 31 -k AGT
+ -t 1.107806246 -s 2 -d 1 -p ack -e 60 -c 2 -a 0 -i 31 -k RTR 
- -t 1.107806246 -s 2 -d 1 -p ack -e 60 -c 2 -a 0 -i 31 -k RTR
h -t 1.107806246 -s 2 -d 1 -p ack -e 60 -c 2 -a 0 -i 31 -k RTR
r -t 1.118003770 -s 2 -d 2 -p tcp -e 1084 -c 2 -a 0 -i 20 -k AGT
+ -t 1.118003770 -s 2 -d -1 -p ack -e 40 -c 2 -a 0 -i 33 -k AGT 
- -t 1.118003770 -s 2 -d -1 -p ack -e 40 -c 2 -a 0 -i 33 -k AGT
h -t 1.118003770 -s 2 -d -1 -p ack -e 40 -c 2 -a 0 -i 33 -k AGT
+ -t 1.118003770 -s 2 -d 1 -p ack -e 60 -c 2 -a 0 -i 33 -k RTR 
- -t 1.118003770 -s 2 -d 1 -p ack -e 60 -c 2 -a 0 -i 33 -k RTR
h -t 1.118003770 -s 2 -d 1 -p ack -e 60 -c 2 -a 0 -i 33 -k RTR
+ -t 1.118710805 -s 0 -d -1 -p message -e 32 -c 2 -a 0 -i 32 -k RTR 
- -t 1.118710805 -s 0 -d -1 -p message -e 32 -c 2 -a 0 -i 32 -k RTR
h -t 1.118710805 -s 0 -d -1 -p message -e 32 -c 2 -a 0 -i 32 -k RTR
r -t 1.120028913 -s 1 -d 1 -p ack -e 60 -c 2 -a 0 -i 31 -k AGT
+ -t 1.120028913 -s 1 -d -1 -p tcp -e 1064 -c 2 -a 0 -i 34 -k AGT 
- -t 1.120028913 -s 1 -d -1 -p tcp -e 1064 -c 2 -a 0 -i 34 -k AGT
h -t 1.120028913 -s 1 -d -1 -p tcp -e 1064 -c 2 -a 0 -i 34 -k AGT
+ -t 1.120028913 -s 1 -d 2 -p tcp -e 1084 -c 2 -a 0 -i 34 -k RTR 
- -t 1.120028913 -s 1 -d 2 -p tcp -e 1084 -c 2 -a 0 -i 34 -k RTR
h -t 1.120028913 -s 1 -d 2 -p tcp -e 1084 -c 2 -a 0 -i 34 -k RTR
+ -t 1.120028913 -s 1 -d -1 -p tcp -e 1064 -c 2 -a 0 -i 35 -k AGT 
- -t 1.120028913 -s 1 -d -1 -p tcp -e 1064 -c 2 -a 0 -i 35 -k AGT
h -t 1.120028913 -s 1 -d -1 -p tcp -e 1064 -c 2 -a 0 -i 35 -k AGT
+ -t 1.120028913 -s 1 -d 2 -p tcp -e 1084 -c 2 -a 0 -i 35 -k RTR 
- -t 1.120028913 -s 1 -d 2 -p tcp -e 1084 -c 2 -a 0 -i 35 -k RTR
h -t 1.120028913 -s 1 -d 2 -p tcp -e 1084 -c 2 -a 0 -i 35 -k RTR
r -t 1.122054437 -s 1 -d 1 -p ack -e 60 -c 2 -a 0 -i 33 -k AGT
+ -t 1.122054437 -s 1 -d -1 -p tcp -e 1064 -c 2 -a 0 -i 36 -k AGT 
- -t 1.122054437 -s 1 -d -1 -p tcp -e 1064 -c 2 -a 0 -i 36 -k AGT
h -t 1.122054437 -s 1 -d -1 -p tcp -e 1064 -c 2 -a 0 -i 36 -k AGT
+ -t 1.122054437 -s 1 -d 2 -p tcp -e 1084 -c 2 -a 0 -i 36 -k RTR 
- -t 1.122054437 -s 1 -d 2 -p tcp -e 1084 -c 2 -a 0 -i 36 -k RTR
h -t 1.122054437 -s 1 -d 2 -p tcp -e 1084 -c 2 -a 0 -i 36 -k RTR
+ -t 1.122054437 -s 1 -d -1 -p tcp -e 1064 -c 2 -a 0 -i 37 -k AGT 
- -t 1.122054437 -s 1 -d -1 -p tcp -e 1064 -c 2 -a 0 -i 37 -k AGT
h -t 1.122054437 -s 1 -d -1 -p tcp -e 1064 -c 2 -a 0 -i 37 -k AGT
+ -t 1.122054437 -s 1 -d 2 -p tcp -e 1084 -c 2 -a 0 -i 37 -k RTR 
- -t 1.122054437 -s 1 -d 2 -p tcp -e 1084 -c 2 -a 0 -i 37 -k RTR
h -t 1.122054437 -s 1 -d 2 -p tcp -e 1084 -c 2 -a 0 -i 37 -k RTR
r -t 1.132291581 -s 2 -d 2 -p tcp -e 1084 -c 2 -a 0 -i 21 -k AGT
+ -t 1.132291581 -s 2 -d -1 -p ack -e 40 -c 2 -a 0 -i 38 -k AGT 
- -t 1.132291581 -s 2 -d -1 -p ack -e 40 -c 2 -a 0 -i 38 -k AGT
h -t 1.132291581 -s 2 -d -1 -p ack -e 40 -c 2 -a 0 -i 38 -k AGT
+ -t 1.132291581 -s 2 -d 1 -p ack -e 60 -c 2 -a 0 -i 38 -k RTR 
- -t 1.132291581 -s 2 -d 1 -p ack -e 60 -c 2 -a 0 -i 38 -k RTR
h -t 1.132291581 -s 2 -d 1 -p ack -e 60 -c 2 -a 0 -i 38 -k RTR
r -t 1.142589105 -s 2 -d 2 -p tcp -e 1084 -c 2 -a 0 -i 24 -k AGT
+ -t 1.142589105 -s 2 -d -1 -p ack -e 40 -c 2 -a 0 -i 39 -k AGT 
- -t 1.142589105 -s 2 -d -1 -p ack -e 40 -c 2 -a 0 -i 39 -k AGT
h -t 1.142589105 -s 2 -d -1 -p ack -e 40 -c 2 -a 0 -i 39 -k AGT
+ -t 1.142589105 -s 2 -d 1 -p ack -e 60 -c 2 -a 0 -i 39 -k RTR 
- -t 1.142589105 -s 2 -d 1 -p ack -e 60 -c 2 -a 0 -i 39 -k RTR
h -t 1.142589105 -s 2 -d 1 -p ack -e 60 -c 2 -a 0 -i 39 -k RTR
r -t 1.152966629 -s 2 -d 2 -p tcp -e 1084 -c 2 -a 0 -i 25 -k AGT
+ -t 1.152966629 -s 2 -d -1 -p ack -e 40 -c 2 -a 0 -i 40 -k AGT 
- -t 1.152966629 -s 2 -d -1 -p ack -e 40 -c 2 -a 0 -i 40 -k AGT
h -t 1.152966629 -s 2 -d -1 -p ack -e 40 -c 2 -a 0 -i 40 -k AGT
+ -t 1.152966629 -s 2 -d 1 -p ack -e 60 -c 2 -a 0 -i 40 -k RTR 
- -t 1.152966629 -s 2 -d 1 -p ack -e 60 -c 2 -a 0 -i 40 -k RTR
h -t 1.152966629 -s 2 -d 1 -p ack -e 60 -c 2 -a 0 -i 40 -k RTR
r -t 1.164090154 -s 2 -d 2 -p tcp -e 1084 -c 2 -a 0 -i 26 -k AGT
+ -t 1.164090154 -s 2 -d -1 -p ack -e 40 -c 2 -a 0 -i 41 -k AGT 
- -t 1.164090154 -s 2 -d -1 -p ack -e 40 -c 2 -a 0 -i 41 -k AGT
h -t 1.164090154 -s 2 -d -1 -p ack -e 40 -c 2 -a 0 -i 41 -k AGT
+ -t 1.164090154 -s 2 -d 1 -p ack -e 60 -c 2 -a 0 -i 41 -k RTR 
- -t 1.164090154 -s 2 -d 1 -p ack -e 60 -c 2 -a 0 -i 41 -k RTR
h -t 1.164090154 -s 2 -d 1 -p ack -e 60 -c 2 -a 0 -i 41 -k RTR
r -t 1.174467678 -s 2 -d 2 -p tcp -e 1084 -c 2 -a 0 -i 27 -k AGT
+ -t 1.174467678 -s 2 -d -1 -p ack -e 40 -c 2 -a 0 -i 42 -k AGT 
- -t 1.174467678 -s 2 -d -1 -p ack -e 40 -c 2 -a 0 -i 42 -k AGT
h -t 1.174467678 -s 2 -d -1 -p ack -e 40 -c 2 -a 0 -i 42 -k AGT
+ -t 1.174467678 -s 2 -d 1 -p ack -e 60 -c 2 -a 0 -i 42 -k RTR 
- -t 1.174467678 -s 2 -d 1 -p ack -e 60 -c 2 -a 0 -i 42 -k RTR
h -t 1.174467678 -s 2 -d 1 -p ack -e 60 -c 2 -a 0 -i 42 -k RTR
r -t 1.184705202 -s 2 -d 2 -p tcp -e 1084 -c 2 -a 0 -i 29 -k AGT
+ -t 1.184705202 -s 2 -d -1 -p ack -e 40 -c 2 -a 0 -i 43 -k AGT 
- -t 1.184705202 -s 2 -d -1 -p ack -e 40 -c 2 -a 0 -i 43 -k AGT
h -t 1.184705202 -s 2 -d -1 -p ack -e 40 -c 2 -a 0 -i 43 -k AGT
+ -t 1.184705202 -s 2 -d 1 -p ack -e 60 -c 2 -a 0 -i 43 -k RTR 
- -t 1.184705202 -s 2 -d 1 -p ack -e 60 -c 2 -a 0 -i 43 -k RTR
h -t 1.184705202 -s 2 -d 1 -p ack -e 60 -c 2 -a 0 -i 43 -k RTR
r -t 1.195222727 -s 2 -d 2 -p tcp -e 1084 -c 2 -a 0 -i 30 -k AGT
+ -t 1.195222727 -s 2 -d -1 -p ack -e 40 -c 2 -a 0 -i 44 -k AGT 
- -t 1.195222727 -s 2 -d -1 -p ack -e 40 -c 2 -a 0 -i 44 -k AGT
h -t 1.195222727 -s 2 -d -1 -p ack -e 40 -c 2 -a 0 -i 44 -k AGT
+ -t 1.195222727 -s 2 -d 1 -p ack -e 60 -c 2 -a 0 -i 44 -k RTR 
- -t 1.195222727 -s 2 -d 1 -p ack -e 60 -c 2 -a 0 -i 44 -k RTR
h -t 1.195222727 -s 2 -d 1 -p ack -e 60 -c 2 -a 0 -i 44 -k RTR
r -t 1.197267870 -s 1 -d 1 -p ack -e 60 -c 2 -a 0 -i 38 -k AGT
+ -t 1.197267870 -s 1 -d -1 -p tcp -e 1064 -c 2 -a 0 -i 45 -k AGT 
- -t 1.197267870 -s 1 -d -1 -p tcp -e 1064 -c 2 -a 0 -i 45 -k AGT
h -t 1.197267870 -s 1 -d -1 -p tcp -e 1064 -c 2 -a 0 -i 45 -k AGT
+ -t 1.197267870 -s 1 -d 2 -p tcp -e 1084 -c 2 -a 0 -i 45 -k RTR 
- -t 1.197267870 -s 1 -d 2 -p tcp -e 1084 -c 2 -a 0 -i 45 -k RTR
h -t 1.197267870 -s 1 -d 2 -p tcp -e 1084 -c 2 -a 0 -i 45 -k RTR
+ -t 1.197267870 -s 1 -d -1 -p tcp -e 1064 -c 2 -a 0 -i 46 -k AGT 
- -t 1.197267870 -s 1 -d -1 -p tcp -e 1064 -c 2 -a 0 -i 46 -k AGT
h -t 1.197267870 -s 1 -d -1 -p tcp -e 1064 -c 2 -a 0 -i 46 -k AGT
+ -t 1.197267870 -s 1 -d 2 -p tcp -e 1084 -c 2 -a 0 -i 46 -k RTR 
- -t 1.197267870 -s 1 -d 2 -p tcp -e 1084 -c 2 -a 0 -i 46 -k RTR
h -t 1.197267870 -s 1 -d 2 -p tcp -e 1084 -c 2 -a 0 -i 46 -k RTR
r -t 1.199373394 -s 1 -d 1 -p ack -e 60 -c 2 -a 0 -i 39 -k AGT
+ -t 1.199373394 -s 1 -d -1 -p tcp -e 1064 -c 2 -a 0 -i 47 -k AGT 
- -t 1.199373394 -s 1 -d -1 -p tcp -e 1064 -c 2 -a 0 -i 47 -k AGT
h -t 1.199373394 -s 1 -d -1 -p tcp -e 1064 -c 2 -a 0 -i 47 -k AGT
+ -t 1.199373394 -s 1 -d 2 -p tcp -e 1084 -c 2 -a 0 -i 47 -k RTR 
- -t 1.199373394 -s 1 -d 2 -p tcp -e 1084 -c 2 -a 0 -i 47 -k RTR
h -t 1.199373394 -s 1 -d 2 -p tcp -e 1084 -c 2 -a 0 -i 47 -k RTR
+ -t 1.199373394 -s 1 -d -1 -p tcp -e 1064 -c 2 -a 0 -i 48 -k AGT 
- -t 1.199373394 -s 1 -d -1 -p tcp -e 1064 -c 2 -a 0 -i 48 -k AGT
h -t 1.199373394 -s 1 -d -1 -p tcp -e 1064 -c 2 -a 0 -i 48 -k AGT
+ -t 1.199373394 -s 1 -d 2 -p tcp -e 1084 -c 2 -a 0 -i 48 -k RTR 
- -t 1.199373394 -s 1 -d 2 -p tcp -e 1084 -c 2 -a 0 -i 48 -k RTR
h -t 1.199373394 -s 1 -d 2 -p tcp -e 1084 -c 2 -a 0 -i 48 -k RTR
r -t 1.201418918 -s 1 -d 1 -p ack -e 60 -c 2 -a 0 -i 40 -k AGT
+ -t 1.201418918 -s 1 -d -1 -p tcp -e 1064 -c 2 -a 0 -i 49 -k AGT 
- -t 1.201418918 -s 1 -d -1 -p tcp -e 1064 -c 2 -a 0 -i 49 -k AGT
h -t 1.201418918 -s 1 -d -1 -p tcp -e 1064 -c 2 -a 0 -i 49 -k AGT
+ -t 1.201418918 -s 1 -d 2 -p tcp -e 1084 -c 2 -a 0 -i 49 -k RTR 
- -t 1.201418918 -s 1 -d 2 -p tcp -e 1084 -c 2 -a 0 -i 49 -k RTR
h -t 1.201418918 -s 1 -d 2 -p tcp -e 1084 -c 2 -a 0 -i 49 -k RTR
+ -t 1.201418918 -s 1 -d -1 -p tcp -e 1064 -c 2 -a 0 -i 50 -k AGT 
- -t 1.201418918 -s 1 -d -1 -p tcp -e 1064 -c 2 -a 0 -i 50 -k AGT
h -t 1.201418918 -s 1 -d -1 -p tcp -e 1064 -c 2 -a 0 -i 50 -k AGT
+ -t 1.201418918 -s 1 -d 2 -p tcp -e 1084 -c 2 -a 0 -i 50 -k RTR 
- -t 1.201418918 -s 1 -d 2 -p tcp -e 1084 -c 2 -a 0 -i 50 -k RTR
h -t 1.201418918 -s 1 -d 2 -p tcp -e 1084 -c 2 -a 0 -i 50 -k RTR
r -t 1.202734051 -s 1 -d -1 -p message -e 32 -c 2 -a 0 -i 32 -k RTR
r -t 1.202734090 -s 3 -d -1 -p message -e 32 -c 2 -a 0 -i 32 -k RTR
r -t 1.202734115 -s 9 -d -1 -p message -e 32 -c 2 -a 0 -i 32 -k RTR
r -t 1.212757194 -s 2 -d 2 -p tcp -e 1084 -c 2 -a 0 -i 34 -k AGT
+ -t 1.212757194 -s 2 -d -1 -p ack -e 40 -c 2 -a 0 -i 51 -k AGT 
- -t 1.212757194 -s 2 -d -1 -p ack -e 40 -c 2 -a 0 -i 51 -k AGT
h -t 1.212757194 -s 2 -d -1 -p ack -e 40 -c 2 -a 0 -i 51 -k AGT
+ -t 1.212757194 -s 2 -d 1 -p ack -e 60 -c 2 -a 0 -i 51 -k RTR 
- -t 1.212757194 -s 2 -d 1 -p ack -e 60 -c 2 -a 0 -i 51 -k RTR
h -t 1.212757194 -s 2 -d 1 -p ack -e 60 -c 2 -a 0 -i 51 -k RTR
r -t 1.215102337 -s 1 -d 1 -p ack -e 60 -c 2 -a 0 -i 41 -k AGT
+ -t 1.215102337 -s 1 -d -1 -p tcp -e 1064 -c 2 -a 0 -i 52 -k AGT 
- -t 1.215102337 -s 1 -d -1 -p tcp -e 1064 -c 2 -a 0 -i 52 -k AGT
h -t 1.215102337 -s 1 -d -1 -p tcp -e 1064 -c 2 -a 0 -i 52 -k AGT
+ -t 1.215102337 -s 1 -d 2 -p tcp -e 1084 -c 2 -a 0 -i 52 -k RTR 
- -t 1.215102337 -s 1 -d 2 -p tcp -e 1084 -c 2 -a 0 -i 52 -k RTR
h -t 1.215102337 -s 1 -d 2 -p tcp -e 1084 -c 2 -a 0 -i 52 -k RTR
+ -t 1.215102337 -s 1 -d -1 -p tcp -e 1064 -c 2 -a 0 -i 53 -k AGT 
- -t 1.215102337 -s 1 -d -1 -p tcp -e 1064 -c 2 -a 0 -i 53 -k AGT
h -t 1.215102337 -s 1 -d -1 -p tcp -e 1064 -c 2 -a 0 -i 53 -k AGT
+ -t 1.215102337 -s 1 -d 2 -p tcp -e 1084 -c 2 -a 0 -i 53 -k RTR 
- -t 1.215102337 -s 1 -d 2 -p tcp -e 1084 -c 2 -a 0 -i 53 -k RTR
h -t 1.215102337 -s 1 -d 2 -p tcp -e 1084 -c 2 -a 0 -i 53 -k RTR
r -t 1.225539480 -s 2 -d 2 -p tcp -e 1084 -c 2 -a 0 -i 35 -k AGT
+ -t 1.225539480 -s 2 -d -1 -p ack -e 40 -c 2 -a 0 -i 54 -k AGT 
- -t 1.225539480 -s 2 -d -1 -p ack -e 40 -c 2 -a 0 -i 54 -k AGT
h -t 1.225539480 -s 2 -d -1 -p ack -e 40 -c 2 -a 0 -i 54 -k AGT
+ -t 1.225539480 -s 2 -d 1 -p ack -e 60 -c 2 -a 0 -i 54 -k RTR 
- -t 1.225539480 -s 2 -d 1 -p ack -e 60 -c 2 -a 0 -i 54 -k RTR
h -t 1.225539480 -s 2 -d 1 -p ack -e 60 -c 2 -a 0 -i 54 -k RTR
r -t 1.227724624 -s 1 -d 1 -p ack -e 60 -c 2 -a 0 -i 42 -k AGT
+ -t 1.227724624 -s 1 -d -1 -p tcp -e 1064 -c 2 -a 0 -i 55 -k AGT 
- -t 1.227724624 -s 1 -d -1 -p tcp -e 1064 -c 2 -a 0 -i 55 -k AGT
h -t 1.227724624 -s 1 -d -1 -p tcp -e 1064 -c 2 -a 0 -i 55 -k AGT
+ -t 1.227724624 -s 1 -d 2 -p tcp -e 1084 -c 2 -a 0 -i 55 -k RTR 
- -t 1.227724624 -s 1 -d 2 -p tcp -e 1084 -c 2 -a 0 -i 55 -k RTR
h -t 1.227724624 -s 1 -d 2 -p tcp -e 1084 -c 2 -a 0 -i 55 -k RTR
+ -t 1.227724624 -s 1 -d -1 -p tcp -e 1064 -c 2 -a 0 -i 56 -k AGT 
- -t 1.227724624 -s 1 -d -1 -p tcp -e 1064 -c 2 -a 0 -i 56 -k AGT
h -t 1.227724624 -s 1 -d -1 -p tcp -e 1064 -c 2 -a 0 -i 56 -k AGT
+ -t 1.227724624 -s 1 -d 2 -p tcp -e 1084 -c 2 -a 0 -i 56 -k RTR 
- -t 1.227724624 -s 1 -d 2 -p tcp -e 1084 -c 2 -a 0 -i 56 -k RTR
h -t 1.227724624 -s 1 -d 2 -p tcp -e 1084 -c 2 -a 0 -i 56 -k RTR
r -t 1.230010148 -s 1 -d 1 -p ack -e 60 -c 2 -a 0 -i 43 -k AGT
+ -t 1.230010148 -s 1 -d -1 -p tcp -e 1064 -c 2 -a 0 -i 57 -k AGT 
- -t 1.230010148 -s 1 -d -1 -p tcp -e 1064 -c 2 -a 0 -i 57 -k AGT
h -t 1.230010148 -s 1 -d -1 -p tcp -e 1064 -c 2 -a 0 -i 57 -k AGT
+ -t 1.230010148 -s 1 -d 2 -p tcp -e 1084 -c 2 -a 0 -i 57 -k RTR 
- -t 1.230010148 -s 1 -d 2 -p tcp -e 1084 -c 2 -a 0 -i 57 -k RTR
h -t 1.230010148 -s 1 -d 2 -p tcp -e 1084 -c 2 -a 0 -i 57 -k RTR
+ -t 1.230010148 -s 1 -d -1 -p tcp -e 1064 -c 2 -a 0 -i 58 -k AGT 
- -t 1.230010148 -s 1 -d -1 -p tcp -e 1064 -c 2 -a 0 -i 58 -k AGT
h -t 1.230010148 -s 1 -d -1 -p tcp -e 1064 -c 2 -a 0 -i 58 -k AGT
+ -t 1.230010148 -s 1 -d 2 -p tcp -e 1084 -c 2 -a 0 -i 58 -k RTR 
- -t 1.230010148 -s 1 -d 2 -p tcp -e 1084 -c 2 -a 0 -i 58 -k RTR
h -t 1.230010148 -s 1 -d 2 -p tcp -e 1084 -c 2 -a 0 -i 58 -k RTR
r -t 1.240247291 -s 2 -d 2 -p tcp -e 1084 -c 2 -a 0 -i 36 -k AGT
+ -t 1.240247291 -s 2 -d -1 -p ack -e 40 -c 2 -a 0 -i 59 -k AGT 
- -t 1.240247291 -s 2 -d -1 -p ack -e 40 -c 2 -a 0 -i 59 -k AGT
h -t 1.240247291 -s 2 -d -1 -p ack -e 40 -c 2 -a 0 -i 59 -k AGT
+ -t 1.240247291 -s 2 -d 1 -p ack -e 60 -c 2 -a 0 -i 59 -k RTR 
- -t 1.240247291 -s 2 -d 1 -p ack -e 60 -c 2 -a 0 -i 59 -k RTR
h -t 1.240247291 -s 2 -d 1 -p ack -e 60 -c 2 -a 0 -i 59 -k RTR
r -t 1.242492434 -s 1 -d 1 -p ack -e 60 -c 2 -a 0 -i 44 -k AGT
+ -t 1.242492434 -s 1 -d -1 -p tcp -e 1064 -c 2 -a 0 -i 60 -k AGT 
- -t 1.242492434 -s 1 -d -1 -p tcp -e 1064 -c 2 -a 0 -i 60 -k AGT
h -t 1.242492434 -s 1 -d -1 -p tcp -e 1064 -c 2 -a 0 -i 60 -k AGT
+ -t 1.242492434 -s 1 -d 2 -p tcp -e 1084 -c 2 -a 0 -i 60 -k RTR 
- -t 1.242492434 -s 1 -d 2 -p tcp -e 1084 -c 2 -a 0 -i 60 -k RTR
h -t 1.242492434 -s 1 -d 2 -p tcp -e 1084 -c 2 -a 0 -i 60 -k RTR
+ -t 1.242492434 -s 1 -d -1 -p tcp -e 1064 -c 2 -a 0 -i 61 -k AGT 
- -t 1.242492434 -s 1 -d -1 -p tcp -e 1064 -c 2 -a 0 -i 61 -k AGT
h -t 1.242492434 -s 1 -d -1 -p tcp -e 1064 -c 2 -a 0 -i 61 -k AGT
+ -t 1.242492434 -s 1 -d 2 -p tcp -e 1084 -c 2 -a 0 -i 61 -k RTR 
- -t 1.242492434 -s 1 -d 2 -p tcp -e 1084 -c 2 -a 0 -i 61 -k RTR
h -t 1.242492434 -s 1 -d 2 -p tcp -e 1084 -c 2 -a 0 -i 61 -k RTR
r -t 1.252729578 -s 2 -d 2 -p tcp -e 1084 -c 2 -a 0 -i 37 -k AGT
+ -t 1.252729578 -s 2 -d -1 -p ack -e 40 -c 2 -a 0 -i 62 -k AGT 
- -t 1.252729578 -s 2 -d -1 -p ack -e 40 -c 2 -a 0 -i 62 -k AGT
h -t 1.252729578 -s 2 -d -1 -p ack -e 40 -c 2 -a 0 -i 62 -k AGT
+ -t 1.252729578 -s 2 -d 1 -p ack -e 60 -c 2 -a 0 -i 62 -k RTR 
- -t 1.252729578 -s 2 -d 1 -p ack -e 60 -c 2 -a 0 -i 62 -k RTR
h -t 1.252729578 -s 2 -d 1 -p ack -e 60 -c 2 -a 0 -i 62 -k RTR
r -t 1.262947102 -s 2 -d 2 -p tcp -e 1084 -c 2 -a 0 -i 45 -k AGT
+ -t 1.262947102 -s 2 -d -1 -p ack -e 40 -c 2 -a 0 -i 63 -k AGT 
- -t 1.262947102 -s 2 -d -1 -p ack -e 40 -c 2 -a 0 -i 63 -k AGT
h -t 1.262947102 -s 2 -d -1 -p ack -e 40 -c 2 -a 0 -i 63 -k AGT
+ -t 1.262947102 -s 2 -d 1 -p ack -e 60 -c 2 -a 0 -i 63 -k RTR 
- -t 1.262947102 -s 2 -d 1 -p ack -e 60 -c 2 -a 0 -i 63 -k RTR
h -t 1.262947102 -s 2 -d 1 -p ack -e 60 -c 2 -a 0 -i 63 -k RTR
r -t 1.265192245 -s 1 -d 1 -p ack -e 60 -c 2 -a 0 -i 51 -k AGT
+ -t 1.265192245 -s 1 -d -1 -p tcp -e 1064 -c 2 -a 0 -i 64 -k AGT 
- -t 1.265192245 -s 1 -d -1 -p tcp -e 1064 -c 2 -a 0 -i 64 -k AGT
h -t 1.265192245 -s 1 -d -1 -p tcp -e 1064 -c 2 -a 0 -i 64 -k AGT
+ -t 1.265192245 -s 1 -d 2 -p tcp -e 1084 -c 2 -a 0 -i 64 -k RTR 
- -t 1.265192245 -s 1 -d 2 -p tcp -e 1084 -c 2 -a 0 -i 64 -k RTR
h -t 1.265192245 -s 1 -d 2 -p tcp -e 1084 -c 2 -a 0 -i 64 -k RTR
+ -t 1.265192245 -s 1 -d -1 -p tcp -e 1064 -c 2 -a 0 -i 65 -k AGT 
- -t 1.265192245 -s 1 -d -1 -p tcp -e 1064 -c 2 -a 0 -i 65 -k AGT
h -t 1.265192245 -s 1 -d -1 -p tcp -e 1064 -c 2 -a 0 -i 65 -k AGT
+ -t 1.265192245 -s 1 -d 2 -p tcp -e 1084 -c 2 -a 0 -i 65 -k RTR 
- -t 1.265192245 -s 1 -d 2 -p tcp -e 1084 -c 2 -a 0 -i 65 -k RTR
h -t 1.265192245 -s 1 -d 2 -p tcp -e 1084 -c 2 -a 0 -i 65 -k RTR