Sconfig 0.00000 tap: on snoop: rts? on errs? on
Sconfig 0.00000 salvage: on !bd replies? on
Sconfig 0.00000 grat error: on grat reply: on
Sconfig 0.00000 $reply for props: on ring 0 search: on
Sconfig 0.00000 using MOBICACHE
s 1.000000000 _0_ AGT  --- 0 tcp 40 [0 0 0 0] ------- [0:0 1:0 32 0] [0 0] 0 0
r 1.000000000 _0_ RTR  --- 0 tcp 40 [0 0 0 0] ------- [0:0 1:0 32 0] [0 0] 0 0
s 1.001231035 _0_ RTR  --- 1 DSR 32 [0 0 0 0] ------- [0:255 1:255 32 0] 1 [1 1] [0 1 0 0->0] [0 0 0 0->0]
r 1.002231747 _1_ RTR  --- 1 DSR 32 [0 ffffffff 0 800] ------- [0:255 1:255 32 0] 1 [1 1] [0 1 0 0->0] [0 0 0 0->0]
s 1.009218480 _1_ RTR  --- 2 DSR 44 [0 0 0 0] ------- [1:255 0:255 254 0] 2 [0 1] [1 1 2 0->1] [0 0 0 0->0]
r 1.013586467 _0_ RTR  --- 2 DSR 44 [13a 0 1 800] ------- [1:255 0:255 254 0] 2 [0 1] [1 1 2 0->1] [0 0 0 0->0]
SFESTs 1.013586467 _0_ 0 [0 -> 1] 1(1) to 1 [0 |1 ]
s 1.013586467 _0_ RTR  --- 0 tcp 76 [0 0 0 0] ------- [0:0 1:0 32 1] [0 0] 0 0
r 1.016000604 _1_ RTR  --- 0 tcp 76 [13a 1 0 800] ------- [0:0 1:0 32 1] [0 0] 1 0
r 1.016000604 _1_ AGT  --- 0 tcp 40 [13a 1 0 800] ------- [0:0 1:0 32 1] [0 0] 1 0
s 1.016000604 _1_ AGT  --- 4 ack 40 [0 0 0 0] ------- [1:0 0:0 32 0] [0 0] 0 0
r 1.016000604 _1_ RTR  --- 4 ack 40 [0 0 0 0] ------- [1:0 0:0 32 0] [0 0] 0 0
SFESTs 1.016000604 _1_ 4 [1 -> 0] 1(1) to 0 [1 |0 ]
s 1.016000604 _1_ RTR  --- 4 ack 76 [0 0 0 0] ------- [1:0 0:0 32 0] [0 0] 0 0
r 1.018354742 _0_ RTR  --- 4 ack 76 [13a 0 1 800] ------- [1:0 0:0 32 0] [0 0] 1 0
r 1.018354742 _0_ AGT  --- 4 ack 40 [13a 0 1 800] ------- [1:0 0:0 32 0] [0 0] 1 0
s 1.018354742 _0_ AGT  --- 5 tcp 1064 [0 0 0 0] ------- [0:0 1:0 32 0] [1 0] 0 0
r 1.018354742 _0_ RTR  --- 5 tcp 1064 [0 0 0 0] ------- [0:0 1:0 32 0] [1 0] 0 0
SFESTs 1.018354742 _0_ 5 [0 -> 1] 1(1) to 1 [0 |1 ]
s 1.018354742 _0_ AGT  --- 6 tcp 1064 [0 0 0 0] ------- [0:0 1:0 32 0] [2 0] 0 0
r 1.018354742 _0_ RTR  --- 6 tcp 1064 [0 0 0 0] ------- [0:0 1:0 32 0] [2 0] 0 0
SFESTs 1.018354742 _0_ 6 [0 -> 1] 1(1) to 1 [0 |1 ]
s 1.018354742 _0_ RTR  --- 5 tcp 1100 [0 0 0 0] ------- [0:0 1:0 32 1] [1 0] 0 0
s 1.018354742 _0_ RTR  --- 6 tcp 1100 [0 0 0 0] ------- [0:0 1:0 32 1] [2 0] 0 0
r 1.028740879 _1_ RTR  --- 5 tcp 1100 [13a 1 0 800] ------- [0:0 1:0 32 1] [1 0] 1 0
r 1.028740879 _1_ AGT  --- 5 tcp 1064 [13a 1 0 800] ------- [0:0 1:0 32 1] [1 0] 1 0
s 1.028740879 _1_ AGT  --- 7 ack 40 [0 0 0 0] ------- [1:0 0:0 32 0] [1 0] 0 0
r 1.028740879 _1_ RTR  --- 7 ack 40 [0 0 0 0] ------- [1:0 0:0 32 0] [1 0] 0 0
SFESTs 1.028740879 _1_ 7 [1 -> 0] 1(1) to 0 [1 |0 ]
s 1.028740879 _1_ RTR  --- 7 ack 76 [0 0 0 0] ------- [1:0 0:0 32 0] [1 0] 0 0
r 1.039067729 _1_ RTR  --- 6 tcp 1100 [13a 1 0 800] ------- [0:0 1:0 32 1] [2 0] 1 0
r 1.039067729 _1_ AGT  --- 6 tcp 1064 [13a 1 0 800] ------- [0:0 1:0 32 1] [2 0] 1 0
s 1.039067729 _1_ AGT  --- 8 ack 40 [0 0 0 0] ------- [1:0 0:0 32 0] [2 0] 0 0
r 1.039067729 _1_ RTR  --- 8 ack 40 [0 0 0 0] ------- [1:0 0:0 32 0] [2 0] 0 0
SFESTs 1.039067729 _1_ 8 [1 -> 0] 1(1) to 0 [1 |0 ]
s 1.039067729 _1_ RTR  --- 8 ack 76 [0 0 0 0] ------- [1:0 0:0 32 0] [2 0] 0 0
r 1.041381866 _0_ RTR  --- 7 ack 76 [13a 0 1 800] ------- [1:0 0:0 32 0] [1 0] 1 0
r 1.041381866 _0_ AGT  --- 7 ack 40 [13a 0 1 800] ------- [1:0 0:0 32 0] [1 0] 1 0
s 1.041381866 _0_ AGT  --- 9 tcp 1064 [0 0 0 0] ------- [0:0 1:0 32 0] [3 0] 0 0
r 1.041381866 _0_ RTR  --- 9 tcp 1064 [0 0 0 0] ------- [0:0 1:0 32 0] [3 0] 0 0
SFs 1.041381866 _0_ 9 [0 -> 1] 1(0) to 1 
s 1.041381866 _0_ AGT  --- 10 tcp 1064 [0 0 0 0] ------- [0:0 1:0 32 0] [4 0] 0 0
r 1.041381866 _0_ RTR  --- 10 tcp 1064 [0 0 0 0] ------- [0:0 1:0 32 0] [4 0] 0 0
SFs 1.041381866 _0_ 10 [0 -> 1] 1(0) to 1 
s 1.041381866 _0_ RTR  --- 9 tcp 1084 [0 0 0 0] ------- [0:0 1:0 32 1] [3 0] 0 0
s 1.041381866 _0_ RTR  --- 10 tcp 1084 [0 0 0 0] ------- [0:0 1:0 32 1] [4 0] 0 0
r 1.043736716 _0_ RTR  --- 8 ack 76 [13a 0 1 800] ------- [1:0 0:0 32 0] [2 0] 1 0
r 1.043736716 _0_ AGT  --- 8 ack 40 [13a 0 1 800] ------- [1:0 0:0 32 0] [2 0] 1 0
s 1.043736716 _0_ AGT  --- 11 tcp 1064 [0 0 0 0] ------- [0:0 1:0 32 0] [5 0] 0 0
r 1.043736716 _0_ RTR  --- 11 tcp 1064 [0 0 0 0] ------- [0:0 1:0 32 0] [5 0] 0 0
SFs 1.043736716 _0_ 11 [0 -> 1] 1(0) to 1 
s 1.043736716 _0_ AGT  --- 12 tcp 1064 [0 0 0 0] ------- [0:0 1:0 32 0] [6 0] 0 0
r 1.043736716 _0_ RTR  --- 12 tcp 1064 [0 0 0 0] ------- [0:0 1:0 32 0] [6 0] 0 0
SFs 1.043736716 _0_ 12 [0 -> 1] 1(0) to 1 
s 1.043736716 _0_ RTR  --- 11 tcp 1084 [0 0 0 0] ------- [0:0 1:0 32 1] [5 0] 0 0
s 1.043736716 _0_ RTR  --- 12 tcp 1084 [0 0 0 0] ------- [0:0 1:0 32 1] [6 0] 0 0
r 1.053974854 _1_ RTR  --- 9 tcp 1084 [13a 1 0 800] ------- [0:0 1:0 32 1] [3 0] 1 0
r 1.053974854 _1_ AGT  --- 9 tcp 1064 [13a 1 0 800] ------- [0:0 1:0 32 1] [3 0] 1 0
s 1.053974854 _1_ AGT  --- 13 ack 40 [0 0 0 0] ------- [1:0 0:0 32 0] [3 0] 0 0
r 1.053974854 _1_ RTR  --- 13 ack 40 [0 0 0 0] ------- [1:0 0:0 32 0] [3 0] 0 0
SFs 1.053974854 _1_ 13 [1 -> 0] 1(0) to 0 
s 1.053974854 _1_ RTR  --- 13 ack 60 [0 0 0 0] ------- [1:0 0:0 32 0] [3 0] 0 0
r 1.064193704 _1_ RTR  --- 10 tcp 1084 [13a 1 0 800] ------- [0:0 1:0 32 1] [4 0] 1 0
r 1.064193704 _1_ AGT  --- 10 tcp 1064 [13a 1 0 800] ------- [0:0 1:0 32 1] [4 0] 1 0
s 1.064193704 _1_ AGT  --- 14 ack 40 [0 0 0 0] ------- [1:0 0:0 32 0] [4 0] 0 0
r 1.064193704 _1_ RTR  --- 14 ack 40 [0 0 0 0] ------- [1:0 0:0 32 0] [4 0] 0 0
SFs 1.064193704 _1_ 14 [1 -> 0] 1(0) to 0 
s 1.064193704 _1_ RTR  --- 14 ack 60 [0 0 0 0] ------- [1:0 0:0 32 0] [4 0] 0 0
r 1.066219841 _0_ RTR  --- 13 ack 60 [13a 0 1 800] ------- [1:0 0:0 32 0] [3 0] 1 0
r 1.066219841 _0_ AGT  --- 13 ack 40 [13a 0 1 800] ------- [1:0 0:0 32 0] [3 0] 1 0
s 1.066219841 _0_ AGT  --- 15 tcp 1064 [0 0 0 0] ------- [0:0 1:0 32 0] [7 0] 0 0
r 1.066219841 _0_ RTR  --- 15 tcp 1064 [0 0 0 0] ------- [0:0 1:0 32 0] [7 0] 0 0
SFs 1.066219841 _0_ 15 [0 -> 1] 1(0) to 1 
s 1.066219841 _0_ AGT  --- 16 tcp 1064 [0 0 0 0] ------- [0:0 1:0 32 0] [8 0] 0 0
r 1.066219841 _0_ RTR  --- 16 tcp 1064 [0 0 0 0] ------- [0:0 1:0 32 0] [8 0] 0 0
SFs 1.066219841 _0_ 16 [0 -> 1] 1(0) to 1 
s 1.066219841 _0_ RTR  --- 15 tcp 1084 [0 0 0 0] ------- [0:0 1:0 32 1] [7 0] 0 0
s 1.066219841 _0_ RTR  --- 16 tcp 1084 [0 0 0 0] ------- [0:0 1:0 32 1] [8 0] 0 0
r 1.068406691 _0_ RTR  --- 14 ack 60 [13a 0 1 800] ------- [1:0 0:0 32 0] [4 0] 1 0
r 1.068406691 _0_ AGT  --- 14 ack 40 [13a 0 1 800] ------- [1:0 0:0 32 0] [4 0] 1 0
s 1.068406691 _0_ AGT  --- 17 tcp 1064 [0 0 0 0] ------- [0:0 1:0 32 0] [9 0] 0 0
r 1.068406691 _0_ RTR  --- 17 tcp 1064 [0 0 0 0] ------- [0:0 1:0 32 0] [9 0] 0 0
SFs 1.068406691 _0_ 17 [0 -> 1] 1(0) to 1 
s 1.068406691 _0_ AGT  --- 18 tcp 1064 [0 0 0 0] ------- [0:0 1:0 32 0] [10 0] 0 0
r 1.068406691 _0_ RTR  --- 18 tcp 1064 [0 0 0 0] ------- [0:0 1:0 32 0] [10 0] 0 0
SFs 1.068406691 _0_ 18 [0 -> 1] 1(0) to 1 
s 1.068406691 _0_ RTR  --- 17 tcp 1084 [0 0 0 0] ------- [0:0 1:0 32 1] [9 0] 0 0
s 1.068406691 _0_ RTR  --- 18 tcp 1084 [0 0 0 0] ------- [0:0 1:0 32 1] [10 0] 0 0
r 1.078824828 _1_ RTR  --- 11 tcp 1084 [13a 1 0 800] ------- [0:0 1:0 32 1] [5 0] 1 0
r 1.078824828 _1_ AGT  --- 11 tcp 1064 [13a 1 0 800] ------- [0:0 1:0 32 1] [5 0] 1 0
s 1.078824828 _1_ AGT  --- 19 ack 40 [0 0 0 0] ------- [1:0 0:0 32 0] [5 0] 0 0
r 1.078824828 _1_ RTR  --- 19 ack 40 [0 0 0 0] ------- [1:0 0:0 32 0] [5 0] 0 0
SFs 1.078824828 _1_ 19 [1 -> 0] 1(0) to 0 
s 1.078824828 _1_ RTR  --- 19 ack 60 [0 0 0 0] ------- [1:0 0:0 32 0] [5 0] 0 0
r 1.080890966 _0_ RTR  --- 19 ack 60 [13a 0 1 800] ------- [1:0 0:0 32 0] [5 0] 1 0
r 1.080890966 _0_ AGT  --- 19 ack 40 [13a 0 1 800] ------- [1:0 0:0 32 0] [5 0] 1 0
s 1.080890966 _0_ AGT  --- 20 tcp 1064 [0 0 0 0] ------- [0:0 1:0 32 0] [11 0] 0 0
r 1.080890966 _0_ RTR  --- 20 tcp 1064 [0 0 0 0] ------- [0:0 1:0 32 0] [11 0] 0 0
SFs 1.080890966 _0_ 20 [0 -> 1] 1(0) to 1 
s 1.080890966 _0_ AGT  --- 21 tcp 1064 [0 0 0 0] ------- [0:0 1:0 32 0] [12 0] 0 0
r 1.080890966 _0_ RTR  --- 21 tcp 1064 [0 0 0 0] ------- [0:0 1:0 32 0] [12 0] 0 0
SFs 1.080890966 _0_ 21 [0 -> 1] 1(0) to 1 
s 1.080890966 _0_ RTR  --- 20 tcp 1084 [0 0 0 0] ------- [0:0 1:0 32 1] [11 0] 0 0
s 1.080890966 _0_ RTR  --- 21 tcp 1084 [0 0 0 0] ------- [0:0 1:0 32 1] [12 0] 0 0
r 1.091269103 _1_ RTR  --- 12 tcp 1084 [13a 1 0 800] ------- [0:0 1:0 32 1] [6 0] 1 0
r 1.091269103 _1_ AGT  --- 12 tcp 1064 [13a 1 0 800] ------- [0:0 1:0 32 1] [6 0] 1 0
s 1.091269103 _1_ AGT  --- 22 ack 40 [0 0 0 0] ------- [1:0 0:0 32 0] [6 0] 0 0
r 1.091269103 _1_ RTR  --- 22 ack 40 [0 0 0 0] ------- [1:0 0:0 32 0] [6 0] 0 0
SFs 1.091269103 _1_ 22 [1 -> 0] 1(0) to 0 
s 1.091269103 _1_ RTR  --- 22 ack 60 [0 0 0 0] ------- [1:0 0:0 32 0] [6 0] 0 0
r 1.093595241 _0_ RTR  --- 22 ack 60 [13a 0 1 800] ------- [1:0 0:0 32 0] [6 0] 1 0
r 1.093595241 _0_ AGT  --- 22 ack 40 [13a 0 1 800] ------- [1:0 0:0 32 0] [6 0] 1 0
s 1.093595241 _0_ AGT  --- 23 tcp 1064 [0 0 0 0] ------- [0:0 1:0 32 0] [13 0] 0 0
r 1.093595241 _0_ RTR  --- 23 tcp 1064 [0 0 0 0] ------- [0:0 1:0 32 0] [13 0] 0 0
SFs 1.093595241 _0_ 23 [0 -> 1] 1(0) to 1 
s 1.093595241 _0_ AGT  --- 24 tcp 1064 [0 0 0 0] ------- [0:0 1:0 32 0] [14 0] 0 0
r 1.093595241 _0_ RTR  --- 24 tcp 1064 [0 0 0 0] ------- [0:0 1:0 32 0] [14 0] 0 0
SFs 1.093595241 _0_ 24 [0 -> 1] 1(0) to 1 
s 1.093595241 _0_ RTR  --- 23 tcp 1084 [0 0 0 0] ------- [0:0 1:0 32 1] [13 0] 0 0
s 1.093595241 _0_ RTR  --- 24 tcp 1084 [0 0 0 0] ------- [0:0 1:0 32 1] [14 0] 0 0
r 1.104053378 _1_ RTR  --- 15 tcp 1084 [13a 1 0 800] ------- [0:0 1:0 32 1] [7 0] 1 0
r 1.104053378 _1_ AGT  --- 15 tcp 1064 [13a 1 0 800] ------- [0:0 1:0 32 1] [7 0] 1 0
s 1.104053378 _1_ AGT  --- 25 ack 40 [0 0 0 0] ------- [1:0 0:0 32 0] [7 0] 0 0
r 1.104053378 _1_ RTR  --- 25 ack 40 [0 0 0 0] ------- [1:0 0:0 32 0] [7 0] 0 0
SFs 1.104053378 _1_ 25 [1 -> 0] 1(0) to 0 
s 1.104053378 _1_ RTR  --- 25 ack 60 [0 0 0 0] ------- [1:0 0:0 32 0] [7 0] 0 0
r 1.106099515 _0_ RTR  --- 25 ack 60 [13a 0 1 800] ------- [1:0 0:0 32 0] [7 0] 1 0
r 1.106099515 _0_ AGT  --- 25 ack 40 [13a 0 1 800] ------- [1:0 0:0 32 0] [7 0] 1 0
s 1.106099515 _0_ AGT  --- 26 tcp 1064 [0 0 0 0] ------- [0:0 1:0 32 0] [15 0] 0 0
r 1.106099515 _0_ RTR  --- 26 tcp 1064 [0 0 0 0] ------- [0:0 1:0 32 0] [15 0] 0 0
SFs 1.106099515 _0_ 26 [0 -> 1] 1(0) to 1 
s 1.106099515 _0_ AGT  --- 27 tcp 1064 [0 0 0 0] ------- [0:0 1:0 32 0] [16 0] 0 0
r 1.106099515 _0_ RTR  --- 27 tcp 1064 [0 0 0 0] ------- [0:0 1:0 32 0] [16 0] 0 0
SFs 1.106099515 _0_ 27 [0 -> 1] 1(0) to 1 
s 1.106099515 _0_ RTR  --- 26 tcp 1084 [0 0 0 0] ------- [0:0 1:0 32 1] [15 0] 0 0
s 1.106099515 _0_ RTR  --- 27 tcp 1084 [0 0 0 0] ------- [0:0 1:0 32 1] [16 0] 0 0
r 1.116817653 _1_ RTR  --- 16 tcp 1084 [13a 1 0 800] ------- [0:0 1:0 32 1] [8 0] 1 0
r 1.116817653 _1_ AGT  --- 16 tcp 1064 [13a 1 0 800] ------- [0:0 1:0 32 1] [8 0] 1 0
s 1.116817653 _1_ AGT  --- 28 ack 40 [0 0 0 0] ------- [1:0 0:0 32 0] [8 0] 0 0
r 1.116817653 _1_ RTR  --- 28 ack 40 [0 0 0 0] ------- [1:0 0:0 32 0] [8 0] 0 0
SFs 1.116817653 _1_ 28 [1 -> 0] 1(0) to 0 
s 1.116817653 _1_ RTR  --- 28 ack 60 [0 0 0 0] ------- [1:0 0:0 32 0] [8 0] 0 0
r 1.127436503 _1_ RTR  --- 17 tcp 1084 [13a 1 0 800] ------- [0:0 1:0 32 1] [9 0] 1 0
r 1.127436503 _1_ AGT  --- 17 tcp 1064 [13a 1 0 800] ------- [0:0 1:0 32 1] [9 0] 1 0
s 1.127436503 _1_ AGT  --- 29 ack 40 [0 0 0 0] ------- [1:0 0:0 32 0] [9 0] 0 0
r 1.127436503 _1_ RTR  --- 29 ack 40 [0 0 0 0] ------- [1:0 0:0 32 0] [9 0] 0 0
SFs 1.127436503 _1_ 29 [1 -> 0] 1(0) to 0 
s 1.127436503 _1_ RTR  --- 29 ack 60 [0 0 0 0] ------- [1:0 0:0 32 0] [9 0] 0 0
r 1.129582640 _0_ RTR  --- 28 ack 60 [13a 0 1 800] ------- [1:0 0:0 32 0] [8 0] 1 0
r 1.129582640 _0_ AGT  --- 28 ack 40 [13a 0 1 800] ------- [1:0 0:0 32 0] [8 0] 1 0
s 1.129582640 _0_ AGT  --- 30 tcp 1064 [0 0 0 0] ------- [0:0 1:0 32 0] [17 0] 0 0
r 1.129582640 _0_ RTR  --- 30 tcp 1064 [0 0 0 0] ------- [0:0 1:0 32 0] [17 0] 0 0
SFs 1.129582640 _0_ 30 [0 -> 1] 1(0) to 1 
s 1.129582640 _0_ AGT  --- 31 tcp 1064 [0 0 0 0] ------- [0:0 1:0 32 0] [18 0] 0 0
r 1.129582640 _0_ RTR  --- 31 tcp 1064 [0 0 0 0] ------- [0:0 1:0 32 0] [18 0] 0 0
SFs 1.129582640 _0_ 31 [0 -> 1] 1(0) to 1 
s 1.129582640 _0_ RTR  --- 30 tcp 1084 [0 0 0 0] ------- [0:0 1:0 32 1] [17 0] 0 0
s 1.129582640 _0_ RTR  --- 31 tcp 1084 [0 0 0 0] ------- [0:0 1:0 32 1] [18 0] 0 0
r 1.139920777 _1_ RTR  --- 18 tcp 1084 [13a 1 0 800] ------- [0:0 1:0 32 1] [10 0] 1 0
r 1.139920777 _1_ AGT  --- 18 tcp 1064 [13a 1 0 800] ------- [0:0 1:0 32 1] [10 0] 1 0
s 1.139920777 _1_ AGT  --- 32 ack 40 [0 0 0 0] ------- [1:0 0:0 32 0] [10 0] 0 0
r 1.139920777 _1_ RTR  --- 32 ack 40 [0 0 0 0] ------- [1:0 0:0 32 0] [10 0] 0 0
SFs 1.139920777 _1_ 32 [1 -> 0] 1(0) to 0 
s 1.139920777 _1_ RTR  --- 32 ack 60 [0 0 0 0] ------- [1:0 0:0 32 0] [10 0] 0 0
r 1.142066915 _0_ RTR  --- 29 ack 60 [13a 0 1 800] ------- [1:0 0:0 32 0] [9 0] 1 0
r 1.142066915 _0_ AGT  --- 29 ack 40 [13a 0 1 800] ------- [1:0 0:0 32 0] [9 0] 1 0
s 1.142066915 _0_ AGT  --- 33 tcp 1064 [0 0 0 0] ------- [0:0 1:0 32 0] [19 0] 0 0
r 1.142066915 _0_ RTR  --- 33 tcp 1064 [0 0 0 0] ------- [0:0 1:0 32 0] [19 0] 0 0
SFs 1.142066915 _0_ 33 [0 -> 1] 1(0) to 1 
s 1.142066915 _0_ AGT  --- 34 tcp 1064 [0 0 0 0] ------- [0:0 1:0 32 0] [20 0] 0 0
r 1.142066915 _0_ RTR  --- 34 tcp 1064 [0 0 0 0] ------- [0:0 1:0 32 0] [20 0] 0 0
SFs 1.142066915 _0_ 34 [0 -> 1] 1(0) to 1 
s 1.142066915 _0_ RTR  --- 33 tcp 1084 [0 0 0 0] ------- [0:0 1:0 32 1] [19 0] 0 0
s 1.142066915 _0_ RTR  --- 34 tcp 1084 [0 0 0 0] ------- [0:0 1:0 32 1] [20 0] 0 0
r 1.152405052 _1_ RTR  --- 20 tcp 1084 [13a 1 0 800] ------- [0:0 1:0 32 1] [11 0] 1 0
r 1.152405052 _1_ AGT  --- 20 tcp 1064 [13a 1 0 800] ------- [0:0 1:0 32 1] [11 0] 1 0
s 1.152405052 _1_ AGT  --- 35 ack 40 [0 0 0 0] ------- [1:0 0:0 32 0] [11 0] 0 0
r 1.152405052 _1_ RTR  --- 35 ack 40 [0 0 0 0] ------- [1:0 0:0 32 0] [11 0] 0 0
SFs 1.152405052 _1_ 35 [1 -> 0] 1(0) to 0 
s 1.152405052 _1_ RTR  --- 35 ack 60 [0 0 0 0] ------- [1:0 0:0 32 0] [11 0] 0 0
r 1.154591190 _0_ RTR  --- 32 ack 60 [13a 0 1 800] ------- [1:0 0:0 32 0] [10 0] 1 0
r 1.154591190 _0_ AGT  --- 32 ack 40 [13a 0 1 800] ------- [1:0 0:0 32 0] [10 0] 1 0
s 1.154591190 _0_ AGT  --- 36 tcp 1064 [0 0 0 0] ------- [0:0 1:0 32 0] [21 0] 0 0
r 1.154591190 _0_ RTR  --- 36 tcp 1064 [0 0 0 0] ------- [0:0 1:0 32 0] [21 0] 0 0
SFs 1.154591190 _0_ 36 [0 -> 1] 1(0) to 1 
s 1.154591190 _0_ AGT  --- 37 tcp 1064 [0 0 0 0] ------- [0:0 1:0 32 0] [22 0] 0 0
r 1.154591190 _0_ RTR  --- 37 tcp 1064 [0 0 0 0] ------- [0:0 1:0 32 0] [22 0] 0 0
SFs 1.154591190 _0_ 37 [0 -> 1] 1(0) to 1 
s 1.154591190 _0_ RTR  --- 36 tcp 1084 [0 0 0 0] ------- [0:0 1:0 32 1] [21 0] 0 0
s 1.154591190 _0_ RTR  --- 37 tcp 1084 [0 0 0 0] ------- [0:0 1:0 32 1] [22 0] 0 0
r 1.156798039 _0_ RTR  --- 35 ack 60 [13a 0 1 800] ------- [1:0 0:0 32 0] [11 0] 1 0
r 1.156798039 _0_ AGT  --- 35 ack 40 [13a 0 1 800] ------- [1:0 0:0 32 0] [11 0] 1 0
s 1.156798039 _0_ AGT  --- 38 tcp 1064 [0 0 0 0] ------- [0:0 1:0 32 0] [23 0] 0 0
r 1.156798039 _0_ RTR  --- 38 tcp 1064 [0 0 0 0] ------- [0:0 1:0 32 0] [23 0] 0 0
SFs 1.156798039 _0_ 38 [0 -> 1] 1(0) to 1 
s 1.156798039 _0_ AGT  --- 39 tcp 1064 [0 0 0 0] ------- [0:0 1:0 32 0] [24 0] 0 0
r 1.156798039 _0_ RTR  --- 39 tcp 1064 [0 0 0 0] ------- [0:0 1:0 32 0] [24 0] 0 0
SFs 1.156798039 _0_ 39 [0 -> 1] 1(0) to 1 
s 1.156798039 _0_ RTR  --- 38 tcp 1084 [0 0 0 0] ------- [0:0 1:0 32 1] [23 0] 0 0
s 1.156798039 _0_ RTR  --- 39 tcp 1084 [0 0 0 0] ------- [0:0 1:0 32 1] [24 0] 0 0
r 1.167156177 _1_ RTR  --- 21 tcp 1084 [13a 1 0 800] ------- [0:0 1:0 32 1] [12 0] 1 0
r 1.167156177 _1_ AGT  --- 21 tcp 1064 [13a 1 0 800] ------- [0:0 1:0 32 1] [12 0] 1 0
s 1.167156177 _1_ AGT  --- 40 ack 40 [0 0 0 0] ------- [1:0 0:0 32 0] [12 0] 0 0
r 1.167156177 _1_ RTR  --- 40 ack 40 [0 0 0 0] ------- [1:0 0:0 32 0] [12 0] 0 0
SFs 1.167156177 _1_ 40 [1 -> 0] 1(0) to 0 
s 1.167156177 _1_ RTR  --- 40 ack 60 [0 0 0 0] ------- [1:0 0:0 32 0] [12 0] 0 0
r 1.169302314 _0_ RTR  --- 40 ack 60 [13a 0 1 800] ------- [1:0 0:0 32 0] [12 0] 1 0
r 1.169302314 _0_ AGT  --- 40 ack 40 [13a 0 1 800] ------- [1:0 0:0 32 0] [12 0] 1 0
s 1.169302314 _0_ AGT  --- 41 tcp 1064 [0 0 0 0] ------- [0:0 1:0 32 0] [25 0] 0 0
r 1.169302314 _0_ RTR  --- 41 tcp 1064 [0 0 0 0] ------- [0:0 1:0 32 0] [25 0] 0 0
SFs 1.169302314 _0_ 41 [0 -> 1] 1(0) to 1 
s 1.169302314 _0_ AGT  --- 42 tcp 1064 [0 0 0 0] ------- [0:0 1:0 32 0] [26 0] 0 0
r 1.169302314 _0_ RTR  --- 42 tcp 1064 [0 0 0 0] ------- [0:0 1:0 32 0] [26 0] 0 0
SFs 1.169302314 _0_ 42 [0 -> 1] 1(0) to 1 
s 1.169302314 _0_ RTR  --- 41 tcp 1084 [0 0 0 0] ------- [0:0 1:0 32 1] [25 0] 0 0
s 1.169302314 _0_ RTR  --- 42 tcp 1084 [0 0 0 0] ------- [0:0 1:0 32 1] [26 0] 0 0
r 1.179780452 _1_ RTR  --- 23 tcp 1084 [13a 1 0 800] ------- [0:0 1:0 32 1] [13 0] 1 0
r 1.179780452 _1_ AGT  --- 23 tcp 1064 [13a 1 0 800] ------- [0:0 1:0 32 1] [13 0] 1 0
s 1.179780452 _1_ AGT  --- 43 ack 40 [0 0 0 0] ------- [1:0 0:0 32 0] [13 0] 0 0
r 1.179780452 _1_ RTR  --- 43 ack 40 [0 0 0 0] ------- [1:0 0:0 32 0] [13 0] 0 0
SFs 1.179780452 _1_ 43 [1 -> 0] 1(0) to 0 
s 1.179780452 _1_ RTR  --- 43 ack 60 [0 0 0 0] ------- [1:0 0:0 32 0] [13 0] 0 0
r 1.181886589 _0_ RTR  --- 43 ack 60 [13a 0 1 800] ------- [1:0 0:0 32 0] [13 0] 1 0
r 1.181886589 _0_ AGT  --- 43 ack 40 [13a 0 1 800] ------- [1:0 0:0 32 0] [13 0] 1 0
s 1.181886589 _0_ AGT  --- 44 tcp 1064 [0 0 0 0] ------- [0:0 1:0 32 0] [27 0] 0 0
r 1.181886589 _0_ RTR  --- 44 tcp 1064 [0 0 0 0] ------- [0:0 1:0 32 0] [27 0] 0 0
SFs 1.181886589 _0_ 44 [0 -> 1] 1(0) to 1 
s 1.181886589 _0_ AGT  --- 45 tcp 1064 [0 0 0 0] ------- [0:0 1:0 32 0] [28 0] 0 0
r 1.181886589 _0_ RTR  --- 45 tcp 1064 [0 0 0 0] ------- [0:0 1:0 32 0] [28 0] 0 0
SFs 1.181886589 _0_ 45 [0 -> 1] 1(0) to 1 
s 1.181886589 _0_ RTR  --- 44 tcp 1084 [0 0 0 0] ------- [0:0 1:0 32 1] [27 0] 0 0
s 1.181886589 _0_ RTR  --- 45 tcp 1084 [0 0 0 0] ------- [0:0 1:0 32 1] [28 0] 0 0
r 1.192124727 _1_ RTR  --- 24 tcp 1084 [13a 1 0 800] ------- [0:0 1:0 32 1] [14 0] 1 0
r 1.192124727 _1_ AGT  --- 24 tcp 1064 [13a 1 0 800] ------- [0:0 1:0 32 1] [14 0] 1 0
s 1.192124727 _1_ AGT  --- 46 ack 40 [0 0 0 0] ------- [1:0 0:0 32 0] [14 0] 0 0
r 1.192124727 _1_ RTR  --- 46 ack 40 [0 0 0 0] ------- [1:0 0:0 32 0] [14 0] 0 0
SFs 1.192124727 _1_ 46 [1 -> 0] 1(0) to 0 
s 1.192124727 _1_ RTR  --- 46 ack 60 [0 0 0 0] ------- [1:0 0:0 32 0] [14 0] 0 0
r 1.202443576 _1_ RTR  --- 26 tcp 1084 [13a 1 0 800] ------- [0:0 1:0 32 1] [15 0] 1 0
r 1.202443576 _1_ AGT  --- 26 tcp 1064 [13a 1 0 800] ------- [0:0 1:0 32 1] [15 0] 1 0
s 1.202443576 _1_ AGT  --- 47 ack 40 [0 0 0 0] ------- [1:0 0:0 32 0] [15 0] 0 0
r 1.202443576 _1_ RTR  --- 47 ack 40 [0 0 0 0] ------- [1:0 0:0 32 0] [15 0] 0 0
SFs 1.202443576 _1_ 47 [1 -> 0] 1(0) to 0 
s 1.202443576 _1_ RTR  --- 47 ack 60 [0 0 0 0] ------- [1:0 0:0 32 0] [15 0] 0 0
r 1.204469714 _0_ RTR  --- 46 ack 60 [13a 0 1 800] ------- [1:0 0:0 32 0] [14 0] 1 0
r 1.204469714 _0_ AGT  --- 46 ack 40 [13a 0 1 800] ------- [1:0 0:0 32 0] [14 0] 1 0
s 1.204469714 _0_ AGT  --- 48 tcp 1064 [0 0 0 0] ------- [0:0 1:0 32 0] [29 0] 0 0
r 1.204469714 _0_ RTR  --- 48 tcp 1064 [0 0 0 0] ------- [0:0 1:0 32 0] [29 0] 0 0
SFs 1.204469714 _0_ 48 [0 -> 1] 1(0) to 1 
s 1.204469714 _0_ AGT  --- 49 tcp 1064 [0 0 0 0] ------- [0:0 1:0 32 0] [30 0] 0 0
r 1.204469714 _0_ RTR  --- 49 tcp 1064 [0 0 0 0] ------- [0:0 1:0 32 0] [30 0] 0 0
SFs 1.204469714 _0_ 49 [0 -> 1] 1(0) to 1 
s 1.204469714 _0_ RTR  --- 48 tcp 1084 [0 0 0 0] ------- [0:0 1:0 32 1] [29 0] 0 0
s 1.204469714 _0_ RTR  --- 49 tcp 1084 [0 0 0 0] ------- [0:0 1:0 32 1] [30 0] 0 0
r 1.206776564 _0_ RTR  --- 47 ack 60 [13a 0 1 800] ------- [1:0 0:0 32 0] [15 0] 1 0
r 1.206776564 _0_ AGT  --- 47 ack 40 [13a 0 1 800] ------- [1:0 0:0 32 0] [15 0] 1 0
s 1.206776564 _0_ AGT  --- 50 tcp 1064 [0 0 0 0] ------- [0:0 1:0 32 0] [31 0] 0 0
r 1.206776564 _0_ RTR  --- 50 tcp 1064 [0 0 0 0] ------- [0:0 1:0 32 0] [31 0] 0 0
SFs 1.206776564 _0_ 50 [0 -> 1] 1(0) to 1 
s 1.206776564 _0_ AGT  --- 51 tcp 1064 [0 0 0 0] ------- [0:0 1:0 32 0] [32 0] 0 0
r 1.206776564 _0_ RTR  --- 51 tcp 1064 [0 0 0 0] ------- [0:0 1:0 32 0] [32 0] 0 0
SFs 1.206776564 _0_ 51 [0 -> 1] 1(0) to 1 
s 1.206776564 _0_ RTR  --- 50 tcp 1084 [0 0 0 0] ------- [0:0 1:0 32 1] [31 0] 0 0
s 1.206776564 _0_ RTR  --- 51 tcp 1084 [0 0 0 0] ------- [0:0 1:0 32 1] [32 0] 0 0
r 1.216974701 _1_ RTR  --- 27 tcp 1084 [13a 1 0 800] ------- [0:0 1:0 32 1] [16 0] 1 0
r 1.216974701 _1_ AGT  --- 27 tcp 1064 [13a 1 0 800] ------- [0:0 1:0 32 1] [16 0] 1 0
s 1.216974701 _1_ AGT  --- 52 ack 40 [0 0 0 0] ------- [1:0 0:0 32 0] [16 0] 0 0
r 1.216974701 _1_ RTR  --- 52 ack 40 [0 0 0 0] ------- [1:0 0:0 32 0] [16 0] 0 0
SFs 1.216974701 _1_ 52 [1 -> 0] 1(0) to 0 
s 1.216974701 _1_ RTR  --- 52 ack 60 [0 0 0 0] ------- [1:0 0:0 32 0] [16 0] 0 0
r 1.227473551 _1_ RTR  --- 30 tcp 1084 [13a 1 0 800] ------- [0:0 1:0 32 1] [17 0] 1 0
r 1.227473551 _1_ AGT  --- 30 tcp 1064 [13a 1 0 800] ------- [0:0 1:0 32 1] [17 0] 1 0
s 1.227473551 _1_ AGT  --- 53 ack 40 [0 0 0 0] ------- [1:0 0:0 32 0] [17 0] 0 0
r 1.227473551 _1_ RTR  --- 53 ack 40 [0 0 0 0] ------- [1:0 0:0 32 0] [17 0] 0 0
SFs 1.227473551 _1_ 53 [1 -> 0] 1(0) to 0 
s 1.227473551 _1_ RTR  --- 53 ack 60 [0 0 0 0] ------- [1:0 0:0 32 0] [17 0] 0 0
r 1.237672401 _1_ RTR  --- 31 tcp 1084 [13a 1 0 800] ------- [0:0 1:0 32 1] [18 0] 1 0
r 1.237672401 _1_ AGT  --- 31 tcp 1064 [13a 1 0 800] ------- [0:0 1:0 32 1] [18 0] 1 0
s 1.237672401 _1_ AGT  --- 54 ack 40 [0 0 0 0] ------- [1:0 0:0 32 0] [18 0] 0 0
r 1.237672401 _1_ RTR  --- 54 ack 40 [0 0 0 0] ------- [1:0 0:0 32 0] [18 0] 0 0
SFs 1.237672401 _1_ 54 [1 -> 0] 1(0) to 0 
s 1.237672401 _1_ RTR  --- 54 ack 60 [0 0 0 0] ------- [1:0 0:0 32 0] [18 0] 0 0
r 1.239738538 _0_ RTR  --- 52 ack 60 [13a 0 1 800] ------- [1:0 0:0 32 0] [16 0] 1 0
r 1.239738538 _0_ AGT  --- 52 ack 40 [13a 0 1 800] ------- [1:0 0:0 32 0] [16 0] 1 0
s 1.239738538 _0_ AGT  --- 55 tcp 1064 [0 0 0 0] ------- [0:0 1:0 32 0] [33 0] 0 0
r 1.239738538 _0_ RTR  --- 55 tcp 1064 [0 0 0 0] ------- [0:0 1:0 32 0] [33 0] 0 0
SFs 1.239738538 _0_ 55 [0 -> 1] 1(0) to 1 
s 1.239738538 _0_ AGT  --- 56 tcp 1064 [0 0 0 0] ------- [0:0 1:0 32 0] [34 0] 0 0
r 1.239738538 _0_ RTR  --- 56 tcp 1064 [0 0 0 0] ------- [0:0 1:0 32 0] [34 0] 0 0
SFs 1.239738538 _0_ 56 [0 -> 1] 1(0) to 1 
s 1.239738538 _0_ RTR  --- 55 tcp 1084 [0 0 0 0] ------- [0:0 1:0 32 1] [33 0] 0 0
s 1.239738538 _0_ RTR  --- 56 tcp 1084 [0 0 0 0] ------- [0:0 1:0 32 1] [34 0] 0 0
r 1.241825388 _0_ RTR  --- 53 ack 60 [13a 0 1 800] ------- [1:0 0:0 32 0] [17 0] 1 0
r 1.241825388 _0_ AGT  --- 53 ack 40 [13a 0 1 800] ------- [1:0 0:0 32 0] [17 0] 1 0
s 1.241825388 _0_ AGT  --- 57 tcp 1064 [0 0 0 0] ------- [0:0 1:0 32 0] [35 0] 0 0
r 1.241825388 _0_ RTR  --- 57 tcp 1064 [0 0 0 0] ------- [0:0 1:0 32 0] [35 0] 0 0
SFs 1.241825388 _0_ 57 [0 -> 1] 1(0) to 1 
s 1.241825388 _0_ AGT  --- 58 tcp 1064 [0 0 0 0] ------- [0:0 1:0 32 0] [36 0] 0 0
r 1.241825388 _0_ RTR  --- 58 tcp 1064 [0 0 0 0] ------- [0:0 1:0 32 0] [36 0] 0 0
SFs 1.241825388 _0_ 58 [0 -> 1] 1(0) to 1 
s 1.241825388 _0_ RTR  --- 57 tcp 1084 [0 0 0 0] ------- [0:0 1:0 32 1] [35 0] 0 0
s 1.241825388 _0_ RTR  --- 58 tcp 1084 [0 0 0 0] ------- [0:0 1:0 32 1] [36 0] 0 0
r 1.243812238 _0_ RTR  --- 54 ack 60 [13a 0 1 800] ------- [1:0 0:0 32 0] [18 0] 1 0
r 1.243812238 _0_ AGT  --- 54 ack 40 [13a 0 1 800] ------- [1:0 0:0 32 0] [18 0] 1 0
s 1.243812238 _0_ AGT  --- 59 tcp 1064 [0 0 0 0] ------- [0:0 1:0 32 0] [37 0] 0 0
r 1.243812238 _0_ RTR  --- 59 tcp 1064 [0 0 0 0] ------- [0:0 1:0 32 0] [37 0] 0 0
SFs 1.243812238 _0_ 59 [0 -> 1] 1(0) to 1 
s 1.243812238 _0_ AGT  --- 60 tcp 1064 [0 0 0 0] ------- [0:0 1:0 32 0] [38 0] 0 0
r 1.243812238 _0_ RTR  --- 60 tcp 1064 [0 0 0 0] ------- [0:0 1:0 32 0] [38 0] 0 0
SFs 1.243812238 _0_ 60 [0 -> 1] 1(0) to 1 
s 1.243812238 _0_ RTR  --- 59 tcp 1084 [0 0 0 0] ------- [0:0 1:0 32 1] [37 0] 0 0
s 1.243812238 _0_ RTR  --- 60 tcp 1084 [0 0 0 0] ------- [0:0 1:0 32 1] [38 0] 0 0
r 1.254090375 _1_ RTR  --- 33 tcp 1084 [13a 1 0 800] ------- [0:0 1:0 32 1] [19 0] 1 0
r 1.254090375 _1_ AGT  --- 33 tcp 1064 [13a 1 0 800] ------- [0:0 1:0 32 1] [19 0] 1 0
s 1.254090375 _1_ AGT  --- 61 ack 40 [0 0 0 0] ------- [1:0 0:0 32 0] [19 0] 0 0
r 1.254090375 _1_ RTR  --- 61 ack 40 [0 0 0 0] ------- [1:0 0:0 32 0] [19 0] 0 0
SFs 1.254090375 _1_ 61 [1 -> 0] 1(0) to 0 
s 1.254090375 _1_ RTR  --- 61 ack 60 [0 0 0 0] ------- [1:0 0:0 32 0] [19 0] 0 0
r 1.264689225 _1_ RTR  --- 34 tcp 1084 [13a 1 0 800] ------- [0:0 1:0 32 1] [20 0] 1 0
r 1.264689225 _1_ AGT  --- 34 tcp 1064 [13a 1 0 800] ------- [0:0 1:0 32 1] [20 0] 1 0
s 1.264689225 _1_ AGT  --- 62 ack 40 [0 0 0 0] ------- [1:0 0:0 32 0] [20 0] 0 0
r 1.264689225 _1_ RTR  --- 62 ack 40 [0 0 0 0] ------- [1:0 0:0 32 0] [20 0] 0 0
SFs 1.264689225 _1_ 62 [1 -> 0] 1(0) to 0 
s 1.264689225 _1_ RTR  --- 62 ack 60 [0 0 0 0] ------- [1:0 0:0 32 0] [20 0] 0 0
r 1.274888075 _1_ RTR  --- 36 tcp 1084 [13a 1 0 800] ------- [0:0 1:0 32 1] [21 0] 1 0
r 1.274888075 _1_ AGT  --- 36 tcp 1064 [13a 1 0 800] ------- [0:0 1:0 32 1] [21 0] 1 0
s 1.274888075 _1_ AGT  --- 63 ack 40 [0 0 0 0] ------- [1:0 0:0 32 0] [21 0] 0 0
r 1.274888075 _1_ RTR  --- 63 ack 40 [0 0 0 0] ------- [1:0 0:0 32 0] [21 0] 0 0
SFs 1.274888075 _1_ 63 [1 -> 0] 1(0) to 0 
s 1.274888075 _1_ RTR  --- 63 ack 60 [0 0 0 0] ------- [1:0 0:0 32 0] [21 0] 0 0
r 1.285126925 _1_ RTR  --- 37 tcp 1084 [13a 1 0 800] ------- [0:0 1:0 32 1] [22 0] 1 0
r 1.285126925 _1_ AGT  --- 37 tcp 1064 [13a 1 0 800] ------- [0:0 1:0 32 1] [22 0] 1 0
s 1.285126925 _1_ AGT  --- 64 ack 40 [0 0 0 0] ------- [1:0 0:0 32 0] [22 0] 0 0
r 1.285126925 _1_ RTR  --- 64 ack 40 [0 0 0 0] ------- [1:0 0:0 32 0] [22 0] 0 0
SFs 1.285126925 _1_ 64 [1 -> 0] 1(0) to 0 
s 1.285126925 _1_ RTR  --- 64 ack 60 [0 0 0 0] ------- [1:0 0:0 32 0] [22 0] 0 0
r 1.287213062 _0_ RTR  --- 61 ack 60 [13a 0 1 800] ------- [1:0 0:0 32 0] [19 0] 1 0
r 1.287213062 _0_ AGT  --- 61 ack 40 [13a 0 1 800] ------- [1:0 0:0 32 0] [19 0] 1 0
s 1.287213062 _0_ AGT  --- 65 tcp 1064 [0 0 0 0] ------- [0:0 1:0 32 0] [39 0] 0 0
r 1.287213062 _0_ RTR  --- 65 tcp 1064 [0 0 0 0] ------- [0:0 1:0 32 0] [39 0] 0 0
SFs 1.287213062 _0_ 65 [0 -> 1] 1(0) to 1 
s 1.287213062 _0_ RTR  --- 65 tcp 1084 [0 0 0 0] ------- [0:0 1:0 32 1] [39 0] 0 0
r 1.289219912 _0_ RTR  --- 62 ack 60 [13a 0 1 800] ------- [1:0 0:0 32 0] [20 0] 1 0
r 1.289219912 _0_ AGT  --- 62 ack 40 [13a 0 1 800] ------- [1:0 0:0 32 0] [20 0] 1 0
s 1.289219912 _0_ AGT  --- 66 tcp 1064 [0 0 0 0] ------- [0:0 1:0 32 0] [40 0] 0 0
r 1.289219912 _0_ RTR  --- 66 tcp 1064 [0 0 0 0] ------- [0:0 1:0 32 0] [40 0] 0 0
SFs 1.289219912 _0_ 66 [0 -> 1] 1(0) to 1 
s 1.289219912 _0_ RTR  --- 66 tcp 1084 [0 0 0 0] ------- [0:0 1:0 32 1] [40 0] 0 0
r 1.291226762 _0_ RTR  --- 63 ack 60 [13a 0 1 800] ------- [1:0 0:0 32 0] [21 0] 1 0
r 1.291226762 _0_ AGT  --- 63 ack 40 [13a 0 1 800] ------- [1:0 0:0 32 0] [21 0] 1 0
s 1.291226762 _0_ AGT  --- 67 tcp 1064 [0 0 0 0] ------- [0:0 1:0 32 0] [41 0] 0 0
r 1.291226762 _0_ RTR  --- 67 tcp 1064 [0 0 0 0] ------- [0:0 1:0 32 0] [41 0] 0 0
SFs 1.291226762 _0_ 67 [0 -> 1] 1(0) to 1 
s 1.291226762 _0_ RTR  --- 67 tcp 1084 [0 0 0 0] ------- [0:0 1:0 32 1] [41 0] 0 0
r 1.301544900 _1_ RTR  --- 38 tcp 1084 [13a 1 0 800] ------- [0:0 1:0 32 1] [23 0] 1 0
r 1.301544900 _1_ AGT  --- 38 tcp 1064 [13a 1 0 800] ------- [0:0 1:0 32 1] [23 0] 1 0
s 1.301544900 _1_ AGT  --- 68 ack 40 [0 0 0 0] ------- [1:0 0:0 32 0] [23 0] 0 0
r 1.301544900 _1_ RTR  --- 68 ack 40 [0 0 0 0] ------- [1:0 0:0 32 0] [23 0] 0 0
SFs 1.301544900 _1_ 68 [1 -> 0] 1(0) to 0 
s 1.301544900 _1_ RTR  --- 68 ack 60 [0 0 0 0] ------- [1:0 0:0 32 0] [23 0] 0 0
r 1.303851037 _0_ RTR  --- 64 ack 60 [13a 0 1 800] ------- [1:0 0:0 32 0] [22 0] 1 0
r 1.303851037 _0_ AGT  --- 64 ack 40 [13a 0 1 800] ------- [1:0 0:0 32 0] [22 0] 1 0
s 1.303851037 _0_ AGT  --- 69 tcp 1064 [0 0 0 0] ------- [0:0 1:0 32 0] [42 0] 0 0
r 1.303851037 _0_ RTR  --- 69 tcp 1064 [0 0 0 0] ------- [0:0 1:0 32 0] [42 0] 0 0
SFs 1.303851037 _0_ 69 [0 -> 1] 1(0) to 1 
s 1.303851037 _0_ RTR  --- 69 tcp 1084 [0 0 0 0] ------- [0:0 1:0 32 1] [42 0] 0 0
r 1.314109174 _1_ RTR  --- 39 tcp 1084 [13a 1 0 800] ------- [0:0 1:0 32 1] [24 0] 1 0
r 1.314109174 _1_ AGT  --- 39 tcp 1064 [13a 1 0 800] ------- [0:0 1:0 32 1] [24 0] 1 0
s 1.314109174 _1_ AGT  --- 70 ack 40 [0 0 0 0] ------- [1:0 0:0 32 0] [24 0] 0 0
r 1.314109174 _1_ RTR  --- 70 ack 40 [0 0 0 0] ------- [1:0 0:0 32 0] [24 0] 0 0
SFs 1.314109174 _1_ 70 [1 -> 0] 1(0) to 0 
s 1.314109174 _1_ RTR  --- 70 ack 60 [0 0 0 0] ------- [1:0 0:0 32 0] [24 0] 0 0
r 1.324608024 _1_ RTR  --- 41 tcp 1084 [13a 1 0 800] ------- [0:0 1:0 32 1] [25 0] 1 0
r 1.324608024 _1_ AGT  --- 41 tcp 1064 [13a 1 0 800] ------- [0:0 1:0 32 1] [25 0] 1 0
s 1.324608024 _1_ AGT  --- 71 ack 40 [0 0 0 0] ------- [1:0 0:0 32 0] [25 0] 0 0
r 1.324608024 _1_ RTR  --- 71 ack 40 [0 0 0 0] ------- [1:0 0:0 32 0] [25 0] 0 0
SFs 1.324608024 _1_ 71 [1 -> 0] 1(0) to 0 
s 1.324608024 _1_ RTR  --- 71 ack 60 [0 0 0 0] ------- [1:0 0:0 32 0] [25 0] 0 0
r 1.326694162 _0_ RTR  --- 68 ack 60 [13a 0 1 800] ------- [1:0 0:0 32 0] [23 0] 1 0
r 1.326694162 _0_ AGT  --- 68 ack 40 [13a 0 1 800] ------- [1:0 0:0 32 0] [23 0] 1 0
s 1.326694162 _0_ AGT  --- 72 tcp 1064 [0 0 0 0] ------- [0:0 1:0 32 0] [43 0] 0 0
r 1.326694162 _0_ RTR  --- 72 tcp 1064 [0 0 0 0] ------- [0:0 1:0 32 0] [43 0] 0 0
SFs 1.326694162 _0_ 72 [0 -> 1] 1(0) to 1 
s 1.326694162 _0_ RTR  --- 72 tcp 1084 [0 0 0 0] ------- [0:0 1:0 32 1] [43 0] 0 0
r 1.336972299 _1_ RTR  --- 42 tcp 1084 [13a 1 0 800] ------- [0:0 1:0 32 1] [26 0] 1 0
r 1.336972299 _1_ AGT  --- 42 tcp 1064 [13a 1 0 800] ------- [0:0 1:0 32 1] [26 0] 1 0
s 1.336972299 _1_ AGT  --- 73 ack 40 [0 0 0 0] ------- [1:0 0:0 32 0] [26 0] 0 0
r 1.336972299 _1_ RTR  --- 73 ack 40 [0 0 0 0] ------- [1:0 0:0 32 0] [26 0] 0 0
SFs 1.336972299 _1_ 73 [1 -> 0] 1(0) to 0 
s 1.336972299 _1_ RTR  --- 73 ack 60 [0 0 0 0] ------- [1:0 0:0 32 0] [26 0] 0 0