n -t * -s 0  -x 411.57511664162161 -y 59.6148779427702 -Z 0 -z 30  -v circle -c black
n -t * -s 1  -x 17.887720846518743 -y 19.222466982539029 -Z 0 -z 30  -v circle -c black
n -t * -s 2  -x 370.6906355780971 -y 169.67417726743693 -Z 0 -z 30  -v circle -c black
n -t * -s 3  -x 15.539510648483184 -y 267.20149804242027 -Z 0 -z 30  -v circle -c black
n -t * -s 4  -x 171.57037657293043 -y 455.06220774495142 -Z 0 -z 30  -v circle -c black
n -t * -s 5  -x 151.19894624277899 -y 13.312985195458394 -Z 0 -z 30  -v circle -c black
n -t * -s 6  -x 496.70512392032202 -y 15.759891837723503 -Z 0 -z 30  -v circle -c black
n -t * -s 7  -x 60.608779341265922 -y 393.40774104623483 -Z 0 -z 30  -v circle -c black
n -t * -s 8  -x 102.41478500068877 -y 399.97708909212474 -Z 0 -z 30  -v circle -c black
n -t * -s 9  -x 496.96316360354569 -y 402.26441221417133 -Z 0 -z 30  -v circle -c black
V -t * -v 1.0a5 -a 0
W -t * -x 500 -y 500
A -t * -n 1 -p 0 -o 0x7fffffff -c 30 -a 1
A -t * -h 1 -m 1073741823 -s 0
n -t 0.000000 -s 0 -x 411.575117 -y 59.614878 -U -5.979144 -V 8.015600 -T 36.288486
n -t 0.000000 -s 1 -x 17.887721 -y 19.222467 -U 9.763534 -V 2.161807 -T 23.820897
n -t 0.000000 -s 2 -x 370.690636 -y 169.674177 -U 1.806039 -V 9.835559 -T 21.548719
n -t 0.000000 -s 3 -x 15.539511 -y 267.201498 -U 9.676220 -V 2.524037 -T 46.236204
n -t 0.000000 -s 4 -x 171.570377 -y 455.062208 -U 8.278847 -V -5.608983 -T 23.462154
n -t 0.000000 -s 5 -x 151.198946 -y 13.312985 -U 7.388988 -V 6.738164 -T 41.193814
n -t 0.000000 -s 6 -x 496.705124 -y 15.759892 -U -8.906043 -V 4.547790 -T 9.783405
n -t 0.000000 -s 7 -x 60.608779 -y 393.407741 -U 8.488825 -V -5.285815 -T 44.542569
n -t 0.000000 -s 8 -x 102.414785 -y 399.977089 -U 9.629341 -V 2.697367 -T 5.034073
n -t 0.000000 -s 9 -x 496.963164 -y 402.264412 -U -9.334910 -V -3.586008 -T 8.836528
+ -t 1.000000000 -s 1 -d -1 -p tcp -e 40 -c 2 -a 0 -i 0 -k AGT 
- -t 1.000000000 -s 1 -d -1 -p tcp -e 40 -c 2 -a 0 -i 0 -k AGT
h -t 1.000000000 -s 1 -d -1 -p tcp -e 40 -c 2 -a 0 -i 0 -k AGT
+ -t 1.000000000 -s 1 -d -1 -p AODV -e 48 -c 2 -a 0 -i 0 -k RTR 
- -t 1.000000000 -s 1 -d -1 -p AODV -e 48 -c 2 -a 0 -i 0 -k RTR
h -t 1.000000000 -s 1 -d -1 -p AODV -e 48 -c 2 -a 0 -i 0 -k RTR
r -t 1.000988436 -s 5 -d -1 -p AODV -e 48 -c 2 -a 0 -i 0 -k RTR
r -t 1.000988828 -s 3 -d -1 -p AODV -e 48 -c 2 -a 0 -i 0 -k RTR
+ -t 1.001869663 -s 5 -d -1 -p AODV -e 48 -c 2 -a 0 -i 0 -k RTR 
- -t 1.001869663 -s 5 -d -1 -p AODV -e 48 -c 2 -a 0 -i 0 -k RTR
h -t 1.001869663 -s 5 -d -1 -p AODV -e 48 -c 2 -a 0 -i 0 -k RTR
r -t 1.002818100 -s 1 -d -1 -p AODV -e 48 -c 2 -a 0 -i 0 -k RTR
+ -t 1.005400562 -s 3 -d -1 -p AODV -e 48 -c 2 -a 0 -i 0 -k RTR 
- -t 1.005400562 -s 3 -d -1 -p AODV -e 48 -c 2 -a 0 -i 0 -k RTR
h -t 1.005400562 -s 3 -d -1 -p AODV -e 48 -c 2 -a 0 -i 0 -k RTR
r -t 1.006548982 -s 7 -d -1 -p AODV -e 48 -c 2 -a 0 -i 0 -k RTR
r -t 1.006549091 -s 8 -d -1 -p AODV -e 48 -c 2 -a 0 -i 0 -k RTR
r -t 1.006549352 -s 4 -d -1 -p AODV -e 48 -c 2 -a 0 -i 0 -k RTR
r -t 1.006549390 -s 1 -d -1 -p AODV -e 48 -c 2 -a 0 -i 0 -k RTR
+ -t 1.009639882 -s 8 -d -1 -p AODV -e 48 -c 2 -a 0 -i 0 -k RTR 
- -t 1.009639882 -s 8 -d -1 -p AODV -e 48 -c 2 -a 0 -i 0 -k RTR
h -t 1.009639882 -s 8 -d -1 -p AODV -e 48 -c 2 -a 0 -i 0 -k RTR
r -t 1.010628033 -s 7 -d -1 -p AODV -e 48 -c 2 -a 0 -i 0 -k RTR
r -t 1.010628156 -s 4 -d -1 -p AODV -e 48 -c 2 -a 0 -i 0 -k RTR
r -t 1.010628411 -s 3 -d -1 -p AODV -e 48 -c 2 -a 0 -i 0 -k RTR
+ -t 1.012937634 -s 7 -d -1 -p AODV -e 48 -c 2 -a 0 -i 0 -k RTR 
- -t 1.012937634 -s 7 -d -1 -p AODV -e 48 -c 2 -a 0 -i 0 -k RTR
h -t 1.012937634 -s 7 -d -1 -p AODV -e 48 -c 2 -a 0 -i 0 -k RTR
r -t 1.014045785 -s 8 -d -1 -p AODV -e 48 -c 2 -a 0 -i 0 -k RTR
r -t 1.014046054 -s 3 -d -1 -p AODV -e 48 -c 2 -a 0 -i 0 -k RTR
r -t 1.014046056 -s 4 -d -1 -p AODV -e 48 -c 2 -a 0 -i 0 -k RTR
+ -t 1.014912587 -s 4 -d -1 -p AODV -e 48 -c 2 -a 0 -i 0 -k RTR 
- -t 1.014912587 -s 4 -d -1 -p AODV -e 48 -c 2 -a 0 -i 0 -k RTR
h -t 1.014912587 -s 4 -d -1 -p AODV -e 48 -c 2 -a 0 -i 0 -k RTR
r -t 1.016100862 -s 8 -d -1 -p AODV -e 48 -c 2 -a 0 -i 0 -k RTR
r -t 1.016101009 -s 7 -d -1 -p AODV -e 48 -c 2 -a 0 -i 0 -k RTR
r -t 1.016101377 -s 3 -d -1 -p AODV -e 48 -c 2 -a 0 -i 0 -k RTR
+ -t 3.000000000 -s 1 -d -1 -p AODV -e 48 -c 2 -a 0 -i 0 -k RTR 
- -t 3.000000000 -s 1 -d -1 -p AODV -e 48 -c 2 -a 0 -i 0 -k RTR
h -t 3.000000000 -s 1 -d -1 -p AODV -e 48 -c 2 -a 0 -i 0 -k RTR
r -t 3.001428421 -s 5 -d -1 -p AODV -e 48 -c 2 -a 0 -i 0 -k RTR
r -t 3.001428830 -s 3 -d -1 -p AODV -e 48 -c 2 -a 0 -i 0 -k RTR
+ -t 3.004916241 -s 3 -d -1 -p AODV -e 48 -c 2 -a 0 -i 0 -k RTR 
- -t 3.004916241 -s 3 -d -1 -p AODV -e 48 -c 2 -a 0 -i 0 -k RTR
h -t 3.004916241 -s 3 -d -1 -p AODV -e 48 -c 2 -a 0 -i 0 -k RTR
r -t 3.006084610 -s 7 -d -1 -p AODV -e 48 -c 2 -a 0 -i 0 -k RTR
r -t 3.006084771 -s 8 -d -1 -p AODV -e 48 -c 2 -a 0 -i 0 -k RTR
r -t 3.006084984 -s 4 -d -1 -p AODV -e 48 -c 2 -a 0 -i 0 -k RTR
r -t 3.006085071 -s 1 -d -1 -p AODV -e 48 -c 2 -a 0 -i 0 -k RTR
+ -t 3.009498707 -s 5 -d -1 -p AODV -e 48 -c 2 -a 0 -i 0 -k RTR 
- -t 3.009498707 -s 5 -d -1 -p AODV -e 48 -c 2 -a 0 -i 0 -k RTR
h -t 3.009498707 -s 5 -d -1 -p AODV -e 48 -c 2 -a 0 -i 0 -k RTR
+ -t 3.010745930 -s 8 -d -1 -p AODV -e 48 -c 2 -a 0 -i 0 -k RTR 
- -t 3.010745930 -s 8 -d -1 -p AODV -e 48 -c 2 -a 0 -i 0 -k RTR
h -t 3.010745930 -s 8 -d -1 -p AODV -e 48 -c 2 -a 0 -i 0 -k RTR
r -t 3.011027128 -s 1 -d -1 -p AODV -e 48 -c 2 -a 0 -i 0 -k RTR
r -t 3.011027460 -s 0 -d -1 -p AODV -e 48 -c 2 -a 0 -i 0 -k RTR
+ -t 3.011271098 -s 7 -d -1 -p AODV -e 48 -c 2 -a 0 -i 0 -k RTR 
- -t 3.011271098 -s 7 -d -1 -p AODV -e 48 -c 2 -a 0 -i 0 -k RTR
h -t 3.011271098 -s 7 -d -1 -p AODV -e 48 -c 2 -a 0 -i 0 -k RTR
r -t 3.012330072 -s 8 -d -1 -p AODV -e 48 -c 2 -a 0 -i 0 -k RTR
r -t 3.012330259 -s 3 -d -1 -p AODV -e 48 -c 2 -a 0 -i 0 -k RTR
r -t 3.012330309 -s 4 -d -1 -p AODV -e 48 -c 2 -a 0 -i 0 -k RTR
+ -t 3.013008052 -s 4 -d -1 -p AODV -e 48 -c 2 -a 0 -i 0 -k RTR 
- -t 3.013008052 -s 4 -d -1 -p AODV -e 48 -c 2 -a 0 -i 0 -k RTR
h -t 3.013008052 -s 4 -d -1 -p AODV -e 48 -c 2 -a 0 -i 0 -k RTR
+ -t 3.013439716 -s 0 -d -1 -p AODV -e 48 -c 2 -a 0 -i 0 -k RTR 
- -t 3.013439716 -s 0 -d -1 -p AODV -e 48 -c 2 -a 0 -i 0 -k RTR
h -t 3.013439716 -s 0 -d -1 -p AODV -e 48 -c 2 -a 0 -i 0 -k RTR
r -t 3.013588254 -s 7 -d -1 -p AODV -e 48 -c 2 -a 0 -i 0 -k RTR
r -t 3.013588311 -s 4 -d -1 -p AODV -e 48 -c 2 -a 0 -i 0 -k RTR
r -t 3.013588602 -s 3 -d -1 -p AODV -e 48 -c 2 -a 0 -i 0 -k RTR
r -t 3.014846550 -s 8 -d -1 -p AODV -e 48 -c 2 -a 0 -i 0 -k RTR
r -t 3.014846730 -s 7 -d -1 -p AODV -e 48 -c 2 -a 0 -i 0 -k RTR
r -t 3.014847054 -s 3 -d -1 -p AODV -e 48 -c 2 -a 0 -i 0 -k RTR
r -t 3.016249974 -s 6 -d -1 -p AODV -e 48 -c 2 -a 0 -i 0 -k RTR
r -t 3.016250052 -s 2 -d -1 -p AODV -e 48 -c 2 -a 0 -i 0 -k RTR
+ -t 3.016250052 -s 2 -d 0 -p AODV -e 44 -c 2 -a 0 -i 0 -k RTR 
- -t 3.016250052 -s 2 -d 0 -p AODV -e 44 -c 2 -a 0 -i 0 -k RTR
h -t 3.016250052 -s 2 -d 0 -p AODV -e 44 -c 2 -a 0 -i 0 -k RTR
r -t 3.016250415 -s 5 -d -1 -p AODV -e 48 -c 2 -a 0 -i 0 -k RTR
+ -t 3.018123627 -s 6 -d -1 -p AODV -e 48 -c 2 -a 0 -i 0 -k RTR 
- -t 3.018123627 -s 6 -d -1 -p AODV -e 48 -c 2 -a 0 -i 0 -k RTR
h -t 3.018123627 -s 6 -d -1 -p AODV -e 48 -c 2 -a 0 -i 0 -k RTR
+ -t 3.021035778 -s 0 -d 5 -p AODV -e 44 -c 2 -a 0 -i 0 -k RTR 
- -t 3.021035778 -s 0 -d 5 -p AODV -e 44 -c 2 -a 0 -i 0 -k RTR
h -t 3.021035778 -s 0 -d 5 -p AODV -e 44 -c 2 -a 0 -i 0 -k RTR
r -t 3.025372334 -s 0 -d -1 -p AODV -e 48 -c 2 -a 0 -i 0 -k RTR
r -t 3.025372669 -s 2 -d -1 -p AODV -e 48 -c 2 -a 0 -i 0 -k RTR
+ -t 3.027096590 -s 5 -d 1 -p AODV -e 44 -c 2 -a 0 -i 0 -k RTR 
- -t 3.027096590 -s 5 -d 1 -p AODV -e 44 -c 2 -a 0 -i 0 -k RTR
h -t 3.027096590 -s 5 -d 1 -p AODV -e 44 -c 2 -a 0 -i 0 -k RTR
+ -t 3.032046539 -s 1 -d 5 -p tcp -e 40 -c 2 -a 0 -i 0 -k RTR 
- -t 3.032046539 -s 1 -d 5 -p tcp -e 40 -c 2 -a 0 -i 0 -k RTR
h -t 3.032046539 -s 1 -d 5 -p tcp -e 40 -c 2 -a 0 -i 0 -k RTR
+ -t 3.034091802 -s 5 -d 0 -p tcp -e 40 -c 2 -a 0 -i 0 -k RTR 
- -t 3.034091802 -s 5 -d 0 -p tcp -e 40 -c 2 -a 0 -i 0 -k RTR
h -t 3.034091802 -s 5 -d 0 -p tcp -e 40 -c 2 -a 0 -i 0 -k RTR
+ -t 3.036218057 -s 0 -d 2 -p tcp -e 40 -c 2 -a 0 -i 0 -k RTR 
- -t 3.036218057 -s 0 -d 2 -p tcp -e 40 -c 2 -a 0 -i 0 -k RTR
h -t 3.036218057 -s 0 -d 2 -p tcp -e 40 -c 2 -a 0 -i 0 -k RTR
r -t 3.038283225 -s 2 -d 2 -p tcp -e 40 -c 2 -a 0 -i 0 -k AGT
+ -t 3.038283225 -s 2 -d -1 -p ack -e 40 -c 2 -a 0 -i 1 -k AGT 
- -t 3.038283225 -s 2 -d -1 -p ack -e 40 -c 2 -a 0 -i 1 -k AGT
h -t 3.038283225 -s 2 -d -1 -p ack -e 40 -c 2 -a 0 -i 1 -k AGT
+ -t 3.038283225 -s 2 -d 0 -p ack -e 40 -c 2 -a 0 -i 1 -k RTR 
- -t 3.038283225 -s 2 -d 0 -p ack -e 40 -c 2 -a 0 -i 1 -k RTR
h -t 3.038283225 -s 2 -d 0 -p ack -e 40 -c 2 -a 0 -i 1 -k RTR
+ -t 3.040388394 -s 0 -d 5 -p ack -e 40 -c 2 -a 0 -i 1 -k RTR 
- -t 3.040388394 -s 0 -d 5 -p ack -e 40 -c 2 -a 0 -i 1 -k RTR
h -t 3.040388394 -s 0 -d 5 -p ack -e 40 -c 2 -a 0 -i 1 -k RTR
+ -t 3.042694648 -s 5 -d 1 -p ack -e 40 -c 2 -a 0 -i 1 -k RTR 
- -t 3.042694648 -s 5 -d 1 -p ack -e 40 -c 2 -a 0 -i 1 -k RTR
h -t 3.042694648 -s 5 -d 1 -p ack -e 40 -c 2 -a 0 -i 1 -k RTR
r -t 3.044639911 -s 1 -d 1 -p ack -e 40 -c 2 -a 0 -i 1 -k AGT
+ -t 3.044639911 -s 1 -d -1 -p tcp -e 1040 -c 2 -a 0 -i 2 -k AGT 
- -t 3.044639911 -s 1 -d -1 -p tcp -e 1040 -c 2 -a 0 -i 2 -k AGT
h -t 3.044639911 -s 1 -d -1 -p tcp -e 1040 -c 2 -a 0 -i 2 -k AGT
+ -t 3.044639911 -s 1 -d -1 -p tcp -e 1040 -c 2 -a 0 -i 3 -k AGT 
- -t 3.044639911 -s 1 -d -1 -p tcp -e 1040 -c 2 -a 0 -i 3 -k AGT
h -t 3.044639911 -s 1 -d -1 -p tcp -e 1040 -c 2 -a 0 -i 3 -k AGT
+ -t 3.044639911 -s 1 -d 5 -p tcp -e 1040 -c 2 -a 0 -i 2 -k RTR 
- -t 3.044639911 -s 1 -d 5 -p tcp -e 1040 -c 2 -a 0 -i 2 -k RTR
h -t 3.044639911 -s 1 -d 5 -p tcp -e 1040 -c 2 -a 0 -i 2 -k RTR
+ -t 3.044639911 -s 1 -d 5 -p tcp -e 1040 -c 2 -a 0 -i 3 -k RTR 
- -t 3.044639911 -s 1 -d 5 -p tcp -e 1040 -c 2 -a 0 -i 3 -k RTR
h -t 3.044639911 -s 1 -d 5 -p tcp -e 1040 -c 2 -a 0 -i 3 -k RTR
+ -t 3.054505175 -s 5 -d 0 -p tcp -e 1040 -c 2 -a 0 -i 2 -k RTR 
- -t 3.054505175 -s 5 -d 0 -p tcp -e 1040 -c 2 -a 0 -i 2 -k RTR
h -t 3.054505175 -s 5 -d 0 -p tcp -e 1040 -c 2 -a 0 -i 2 -k RTR
+ -t 3.064450859 -s 5 -d 0 -p tcp -e 1040 -c 2 -a 0 -i 3 -k RTR 
- -t 3.064450859 -s 5 -d 0 -p tcp -e 1040 -c 2 -a 0 -i 3 -k RTR
h -t 3.064450859 -s 5 -d 0 -p tcp -e 1040 -c 2 -a 0 -i 3 -k RTR
+ -t 3.074597110 -s 0 -d 2 -p tcp -e 1040 -c 2 -a 0 -i 2 -k RTR 
- -t 3.074597110 -s 0 -d 2 -p tcp -e 1040 -c 2 -a 0 -i 2 -k RTR
h -t 3.074597110 -s 0 -d 2 -p tcp -e 1040 -c 2 -a 0 -i 2 -k RTR
+ -t 3.084504109 -s 0 -d 2 -p tcp -e 1040 -c 2 -a 0 -i 3 -k RTR 
- -t 3.084504109 -s 0 -d 2 -p tcp -e 1040 -c 2 -a 0 -i 3 -k RTR
h -t 3.084504109 -s 0 -d 2 -p tcp -e 1040 -c 2 -a 0 -i 3 -k RTR
r -t 3.094349278 -s 2 -d 2 -p tcp -e 1040 -c 2 -a 0 -i 2 -k AGT
+ -t 3.094349278 -s 2 -d -1 -p ack -e 40 -c 2 -a 0 -i 4 -k AGT 
- -t 3.094349278 -s 2 -d -1 -p ack -e 40 -c 2 -a 0 -i 4 -k AGT
h -t 3.094349278 -s 2 -d -1 -p ack -e 40 -c 2 -a 0 -i 4 -k AGT
+ -t 3.094349278 -s 2 -d 0 -p ack -e 40 -c 2 -a 0 -i 4 -k RTR 
- -t 3.094349278 -s 2 -d 0 -p ack -e 40 -c 2 -a 0 -i 4 -k RTR
h -t 3.094349278 -s 2 -d 0 -p ack -e 40 -c 2 -a 0 -i 4 -k RTR
r -t 3.104234837 -s 2 -d 2 -p tcp -e 1040 -c 2 -a 0 -i 3 -k AGT
+ -t 3.104234837 -s 2 -d -1 -p ack -e 40 -c 2 -a 0 -i 5 -k AGT 
- -t 3.104234837 -s 2 -d -1 -p ack -e 40 -c 2 -a 0 -i 5 -k AGT
h -t 3.104234837 -s 2 -d -1 -p ack -e 40 -c 2 -a 0 -i 5 -k AGT
+ -t 3.104234837 -s 2 -d 0 -p ack -e 40 -c 2 -a 0 -i 5 -k RTR 
- -t 3.104234837 -s 2 -d 0 -p ack -e 40 -c 2 -a 0 -i 5 -k RTR
h -t 3.104234837 -s 2 -d 0 -p ack -e 40 -c 2 -a 0 -i 5 -k RTR
+ -t 3.106200006 -s 0 -d 5 -p ack -e 40 -c 2 -a 0 -i 4 -k RTR 
- -t 3.106200006 -s 0 -d 5 -p ack -e 40 -c 2 -a 0 -i 4 -k RTR
h -t 3.106200006 -s 0 -d 5 -p ack -e 40 -c 2 -a 0 -i 4 -k RTR
+ -t 3.108226251 -s 5 -d 1 -p ack -e 40 -c 2 -a 0 -i 4 -k RTR 
- -t 3.108226251 -s 5 -d 1 -p ack -e 40 -c 2 -a 0 -i 4 -k RTR
h -t 3.108226251 -s 5 -d 1 -p ack -e 40 -c 2 -a 0 -i 4 -k RTR
r -t 3.110171513 -s 1 -d 1 -p ack -e 40 -c 2 -a 0 -i 4 -k AGT
+ -t 3.110171513 -s 1 -d -1 -p tcp -e 1040 -c 2 -a 0 -i 6 -k AGT 
- -t 3.110171513 -s 1 -d -1 -p tcp -e 1040 -c 2 -a 0 -i 6 -k AGT
h -t 3.110171513 -s 1 -d -1 -p tcp -e 1040 -c 2 -a 0 -i 6 -k AGT
+ -t 3.110171513 -s 1 -d -1 -p tcp -e 1040 -c 2 -a 0 -i 7 -k AGT 
- -t 3.110171513 -s 1 -d -1 -p tcp -e 1040 -c 2 -a 0 -i 7 -k AGT
h -t 3.110171513 -s 1 -d -1 -p tcp -e 1040 -c 2 -a 0 -i 7 -k AGT
+ -t 3.110171513 -s 1 -d 5 -p tcp -e 1040 -c 2 -a 0 -i 6 -k RTR 
- -t 3.110171513 -s 1 -d 5 -p tcp -e 1040 -c 2 -a 0 -i 6 -k RTR
h -t 3.110171513 -s 1 -d 5 -p tcp -e 1040 -c 2 -a 0 -i 6 -k RTR
+ -t 3.110171513 -s 1 -d 5 -p tcp -e 1040 -c 2 -a 0 -i 7 -k RTR 
- -t 3.110171513 -s 1 -d 5 -p tcp -e 1040 -c 2 -a 0 -i 7 -k RTR
h -t 3.110171513 -s 1 -d 5 -p tcp -e 1040 -c 2 -a 0 -i 7 -k RTR
+ -t 3.120056775 -s 5 -d 0 -p tcp -e 1040 -c 2 -a 0 -i 6 -k RTR 
- -t 3.120056775 -s 5 -d 0 -p tcp -e 1040 -c 2 -a 0 -i 6 -k RTR
h -t 3.120056775 -s 5 -d 0 -p tcp -e 1040 -c 2 -a 0 -i 6 -k RTR
+ -t 3.130002457 -s 5 -d 0 -p tcp -e 1040 -c 2 -a 0 -i 7 -k RTR 
- -t 3.130002457 -s 5 -d 0 -p tcp -e 1040 -c 2 -a 0 -i 7 -k RTR
h -t 3.130002457 -s 5 -d 0 -p tcp -e 1040 -c 2 -a 0 -i 7 -k RTR
+ -t 3.140248700 -s 0 -d 2 -p tcp -e 1040 -c 2 -a 0 -i 6 -k RTR 
- -t 3.140248700 -s 0 -d 2 -p tcp -e 1040 -c 2 -a 0 -i 6 -k RTR
h -t 3.140248700 -s 0 -d 2 -p tcp -e 1040 -c 2 -a 0 -i 6 -k RTR
+ -t 3.142483993 -s 0 -d 5 -p ack -e 40 -c 2 -a 0 -i 5 -k RTR 
- -t 3.142483993 -s 0 -d 5 -p ack -e 40 -c 2 -a 0 -i 5 -k RTR
h -t 3.142483993 -s 0 -d 5 -p ack -e 40 -c 2 -a 0 -i 5 -k RTR
r -t 3.152349163 -s 2 -d 2 -p tcp -e 1040 -c 2 -a 0 -i 6 -k AGT
+ -t 3.152349163 -s 2 -d -1 -p ack -e 40 -c 2 -a 0 -i 8 -k AGT 
- -t 3.152349163 -s 2 -d -1 -p ack -e 40 -c 2 -a 0 -i 8 -k AGT
h -t 3.152349163 -s 2 -d -1 -p ack -e 40 -c 2 -a 0 -i 8 -k AGT
+ -t 3.152349163 -s 2 -d 0 -p ack -e 40 -c 2 -a 0 -i 8 -k RTR 
- -t 3.152349163 -s 2 -d 0 -p ack -e 40 -c 2 -a 0 -i 8 -k RTR
h -t 3.152349163 -s 2 -d 0 -p ack -e 40 -c 2 -a 0 -i 8 -k RTR
+ -t 3.154434332 -s 0 -d 5 -p ack -e 40 -c 2 -a 0 -i 8 -k RTR 
- -t 3.154434332 -s 0 -d 5 -p ack -e 40 -c 2 -a 0 -i 8 -k RTR
h -t 3.154434332 -s 0 -d 5 -p ack -e 40 -c 2 -a 0 -i 8 -k RTR
+ -t 3.156300572 -s 5 -d 1 -p ack -e 40 -c 2 -a 0 -i 5 -k RTR 
- -t 3.156300572 -s 5 -d 1 -p ack -e 40 -c 2 -a 0 -i 5 -k RTR
h -t 3.156300572 -s 5 -d 1 -p ack -e 40 -c 2 -a 0 -i 5 -k RTR
+ -t 3.166266811 -s 0 -d 2 -p tcp -e 1040 -c 2 -a 0 -i 7 -k RTR 
- -t 3.166266811 -s 0 -d 2 -p tcp -e 1040 -c 2 -a 0 -i 7 -k RTR
h -t 3.166266811 -s 0 -d 2 -p tcp -e 1040 -c 2 -a 0 -i 7 -k RTR
r -t 3.168132817 -s 1 -d 1 -p ack -e 40 -c 2 -a 0 -i 5 -k AGT
+ -t 3.168132817 -s 1 -d -1 -p tcp -e 1040 -c 2 -a 0 -i 9 -k AGT 
- -t 3.168132817 -s 1 -d -1 -p tcp -e 1040 -c 2 -a 0 -i 9 -k AGT
h -t 3.168132817 -s 1 -d -1 -p tcp -e 1040 -c 2 -a 0 -i 9 -k AGT
+ -t 3.168132817 -s 1 -d -1 -p tcp -e 1040 -c 2 -a 0 -i 10 -k AGT 
- -t 3.168132817 -s 1 -d -1 -p tcp -e 1040 -c 2 -a 0 -i 10 -k AGT
h -t 3.168132817 -s 1 -d -1 -p tcp -e 1040 -c 2 -a 0 -i 10 -k AGT
+ -t 3.168132817 -s 1 -d 5 -p tcp -e 1040 -c 2 -a 0 -i 9 -k RTR 
- -t 3.168132817 -s 1 -d 5 -p tcp -e 1040 -c 2 -a 0 -i 9 -k RTR
h -t 3.168132817 -s 1 -d 5 -p tcp -e 1040 -c 2 -a 0 -i 9 -k RTR
+ -t 3.168132817 -s 1 -d 5 -p tcp -e 1040 -c 2 -a 0 -i 10 -k RTR 
- -t 3.168132817 -s 1 -d 5 -p tcp -e 1040 -c 2 -a 0 -i 10 -k RTR
h -t 3.168132817 -s 1 -d 5 -p tcp -e 1040 -c 2 -a 0 -i 10 -k RTR
+ -t 3.178038078 -s 5 -d 0 -p tcp -e 1040 -c 2 -a 0 -i 9 -k RTR 
- -t 3.178038078 -s 5 -d 0 -p tcp -e 1040 -c 2 -a 0 -i 9 -k RTR
h -t 3.178038078 -s 5 -d 0 -p tcp -e 1040 -c 2 -a 0 -i 9 -k RTR
+ -t 3.188083759 -s 5 -d 0 -p tcp -e 1040 -c 2 -a 0 -i 10 -k RTR 
- -t 3.188083759 -s 5 -d 0 -p tcp -e 1040 -c 2 -a 0 -i 10 -k RTR
h -t 3.188083759 -s 5 -d 0 -p tcp -e 1040 -c 2 -a 0 -i 10 -k RTR
+ -t 3.189980736 -s 5 -d 1 -p ack -e 40 -c 2 -a 0 -i 8 -k RTR 
- -t 3.189980736 -s 5 -d 1 -p ack -e 40 -c 2 -a 0 -i 8 -k RTR
h -t 3.189980736 -s 5 -d 1 -p ack -e 40 -c 2 -a 0 -i 8 -k RTR
r -t 3.199966651 -s 2 -d 2 -p tcp -e 1040 -c 2 -a 0 -i 7 -k AGT
+ -t 3.199966651 -s 2 -d -1 -p ack -e 40 -c 2 -a 0 -i 11 -k AGT 
- -t 3.199966651 -s 2 -d -1 -p ack -e 40 -c 2 -a 0 -i 11 -k AGT
h -t 3.199966651 -s 2 -d -1 -p ack -e 40 -c 2 -a 0 -i 11 -k AGT
+ -t 3.199966651 -s 2 -d 0 -p ack -e 40 -c 2 -a 0 -i 11 -k RTR 
- -t 3.199966651 -s 2 -d 0 -p ack -e 40 -c 2 -a 0 -i 11 -k RTR
h -t 3.199966651 -s 2 -d 0 -p ack -e 40 -c 2 -a 0 -i 11 -k RTR
+ -t 3.202051820 -s 0 -d 5 -p ack -e 40 -c 2 -a 0 -i 11 -k RTR 
- -t 3.202051820 -s 0 -d 5 -p ack -e 40 -c 2 -a 0 -i 11 -k RTR
h -t 3.202051820 -s 0 -d 5 -p ack -e 40 -c 2 -a 0 -i 11 -k RTR
+ -t 3.212008535 -s 0 -d 2 -p tcp -e 1040 -c 2 -a 0 -i 9 -k RTR 
- -t 3.212008535 -s 0 -d 2 -p tcp -e 1040 -c 2 -a 0 -i 9 -k RTR
h -t 3.212008535 -s 0 -d 2 -p tcp -e 1040 -c 2 -a 0 -i 9 -k RTR
+ -t 3.213894767 -s 5 -d 1 -p ack -e 40 -c 2 -a 0 -i 11 -k RTR 
- -t 3.213894767 -s 5 -d 1 -p ack -e 40 -c 2 -a 0 -i 11 -k RTR
h -t 3.213894767 -s 5 -d 1 -p ack -e 40 -c 2 -a 0 -i 11 -k RTR
+ -t 3.223800998 -s 0 -d 2 -p tcp -e 1040 -c 2 -a 0 -i 10 -k RTR 
- -t 3.223800998 -s 0 -d 2 -p tcp -e 1040 -c 2 -a 0 -i 10 -k RTR
h -t 3.223800998 -s 0 -d 2 -p tcp -e 1040 -c 2 -a 0 -i 10 -k RTR
r -t 3.233726168 -s 2 -d 2 -p tcp -e 1040 -c 2 -a 0 -i 9 -k AGT
+ -t 3.233726168 -s 2 -d -1 -p ack -e 40 -c 2 -a 0 -i 12 -k AGT 
- -t 3.233726168 -s 2 -d -1 -p ack -e 40 -c 2 -a 0 -i 12 -k AGT
h -t 3.233726168 -s 2 -d -1 -p ack -e 40 -c 2 -a 0 -i 12 -k AGT
+ -t 3.233726168 -s 2 -d 0 -p ack -e 40 -c 2 -a 0 -i 12 -k RTR 
- -t 3.233726168 -s 2 -d 0 -p ack -e 40 -c 2 -a 0 -i 12 -k RTR
h -t 3.233726168 -s 2 -d 0 -p ack -e 40 -c 2 -a 0 -i 12 -k RTR
r -t 3.243551728 -s 2 -d 2 -p tcp -e 1040 -c 2 -a 0 -i 10 -k AGT
+ -t 3.243551728 -s 2 -d -1 -p ack -e 40 -c 2 -a 0 -i 13 -k AGT 
- -t 3.243551728 -s 2 -d -1 -p ack -e 40 -c 2 -a 0 -i 13 -k AGT
h -t 3.243551728 -s 2 -d -1 -p ack -e 40 -c 2 -a 0 -i 13 -k AGT
+ -t 3.243551728 -s 2 -d 0 -p ack -e 40 -c 2 -a 0 -i 13 -k RTR 
- -t 3.243551728 -s 2 -d 0 -p ack -e 40 -c 2 -a 0 -i 13 -k RTR
h -t 3.243551728 -s 2 -d 0 -p ack -e 40 -c 2 -a 0 -i 13 -k RTR
+ -t 3.245616899 -s 0 -d 5 -p ack -e 40 -c 2 -a 0 -i 12 -k RTR 
- -t 3.245616899 -s 0 -d 5 -p ack -e 40 -c 2 -a 0 -i 12 -k RTR
h -t 3.245616899 -s 0 -d 5 -p ack -e 40 -c 2 -a 0 -i 12 -k RTR
r -t 3.247632639 -s 1 -d 1 -p ack -e 40 -c 2 -a 0 -i 8 -k AGT
+ -t 3.247632639 -s 1 -d -1 -p tcp -e 1040 -c 2 -a 0 -i 14 -k AGT 
- -t 3.247632639 -s 1 -d -1 -p tcp -e 1040 -c 2 -a 0 -i 14 -k AGT
h -t 3.247632639 -s 1 -d -1 -p tcp -e 1040 -c 2 -a 0 -i 14 -k AGT
+ -t 3.247632639 -s 1 -d -1 -p tcp -e 1040 -c 2 -a 0 -i 15 -k AGT 
- -t 3.247632639 -s 1 -d -1 -p tcp -e 1040 -c 2 -a 0 -i 15 -k AGT
h -t 3.247632639 -s 1 -d -1 -p tcp -e 1040 -c 2 -a 0 -i 15 -k AGT
+ -t 3.247632639 -s 1 -d 5 -p tcp -e 1040 -c 2 -a 0 -i 14 -k RTR 
- -t 3.247632639 -s 1 -d 5 -p tcp -e 1040 -c 2 -a 0 -i 14 -k RTR
h -t 3.247632639 -s 1 -d 5 -p tcp -e 1040 -c 2 -a 0 -i 14 -k RTR
+ -t 3.247632639 -s 1 -d 5 -p tcp -e 1040 -c 2 -a 0 -i 15 -k RTR 
- -t 3.247632639 -s 1 -d 5 -p tcp -e 1040 -c 2 -a 0 -i 15 -k RTR
h -t 3.247632639 -s 1 -d 5 -p tcp -e 1040 -c 2 -a 0 -i 15 -k RTR
+ -t 3.257877898 -s 5 -d 0 -p tcp -e 1040 -c 2 -a 0 -i 14 -k RTR 
- -t 3.257877898 -s 5 -d 0 -p tcp -e 1040 -c 2 -a 0 -i 14 -k RTR
h -t 3.257877898 -s 5 -d 0 -p tcp -e 1040 -c 2 -a 0 -i 14 -k RTR
r -t 3.259803157 -s 1 -d 1 -p ack -e 40 -c 2 -a 0 -i 11 -k AGT
+ -t 3.259803157 -s 1 -d -1 -p tcp -e 1040 -c 2 -a 0 -i 16 -k AGT 
- -t 3.259803157 -s 1 -d -1 -p tcp -e 1040 -c 2 -a 0 -i 16 -k AGT
h -t 3.259803157 -s 1 -d -1 -p tcp -e 1040 -c 2 -a 0 -i 16 -k AGT
+ -t 3.259803157 -s 1 -d -1 -p tcp -e 1040 -c 2 -a 0 -i 17 -k AGT 
- -t 3.259803157 -s 1 -d -1 -p tcp -e 1040 -c 2 -a 0 -i 17 -k AGT
h -t 3.259803157 -s 1 -d -1 -p tcp -e 1040 -c 2 -a 0 -i 17 -k AGT
+ -t 3.259803157 -s 1 -d 5 -p tcp -e 1040 -c 2 -a 0 -i 16 -k RTR 
- -t 3.259803157 -s 1 -d 5 -p tcp -e 1040 -c 2 -a 0 -i 16 -k RTR
h -t 3.259803157 -s 1 -d 5 -p tcp -e 1040 -c 2 -a 0 -i 16 -k RTR
+ -t 3.259803157 -s 1 -d 5 -p tcp -e 1040 -c 2 -a 0 -i 17 -k RTR 
- -t 3.259803157 -s 1 -d 5 -p tcp -e 1040 -c 2 -a 0 -i 17 -k RTR
h -t 3.259803157 -s 1 -d 5 -p tcp -e 1040 -c 2 -a 0 -i 17 -k RTR
+ -t 3.269789802 -s 0 -d 2 -p tcp -e 1040 -c 2 -a 0 -i 14 -k RTR 
- -t 3.269789802 -s 0 -d 2 -p tcp -e 1040 -c 2 -a 0 -i 14 -k RTR
h -t 3.269789802 -s 0 -d 2 -p tcp -e 1040 -c 2 -a 0 -i 14 -k RTR
+ -t 3.271716027 -s 5 -d 1 -p ack -e 40 -c 2 -a 0 -i 12 -k RTR 
- -t 3.271716027 -s 5 -d 1 -p ack -e 40 -c 2 -a 0 -i 12 -k RTR
h -t 3.271716027 -s 5 -d 1 -p ack -e 40 -c 2 -a 0 -i 12 -k RTR
r -t 3.281641939 -s 2 -d 2 -p tcp -e 1040 -c 2 -a 0 -i 14 -k AGT
+ -t 3.281641939 -s 2 -d -1 -p ack -e 40 -c 2 -a 0 -i 18 -k AGT 
- -t 3.281641939 -s 2 -d -1 -p ack -e 40 -c 2 -a 0 -i 18 -k AGT
h -t 3.281641939 -s 2 -d -1 -p ack -e 40 -c 2 -a 0 -i 18 -k AGT
+ -t 3.281641939 -s 2 -d 0 -p ack -e 40 -c 2 -a 0 -i 18 -k RTR 
- -t 3.281641939 -s 2 -d 0 -p ack -e 40 -c 2 -a 0 -i 18 -k RTR
h -t 3.281641939 -s 2 -d 0 -p ack -e 40 -c 2 -a 0 -i 18 -k RTR
+ -t 3.283527109 -s 0 -d 5 -p ack -e 40 -c 2 -a 0 -i 13 -k RTR 
- -t 3.283527109 -s 0 -d 5 -p ack -e 40 -c 2 -a 0 -i 13 -k RTR
h -t 3.283527109 -s 0 -d 5 -p ack -e 40 -c 2 -a 0 -i 13 -k RTR
+ -t 3.285413332 -s 5 -d 1 -p ack -e 40 -c 2 -a 0 -i 13 -k RTR 
- -t 3.285413332 -s 5 -d 1 -p ack -e 40 -c 2 -a 0 -i 13 -k RTR
h -t 3.285413332 -s 5 -d 1 -p ack -e 40 -c 2 -a 0 -i 13 -k RTR
+ -t 3.295329006 -s 5 -d 0 -p tcp -e 1040 -c 2 -a 0 -i 15 -k RTR 
- -t 3.295329006 -s 5 -d 0 -p tcp -e 1040 -c 2 -a 0 -i 15 -k RTR
h -t 3.295329006 -s 5 -d 0 -p tcp -e 1040 -c 2 -a 0 -i 15 -k RTR
r -t 3.297234265 -s 1 -d 1 -p ack -e 40 -c 2 -a 0 -i 12 -k AGT
+ -t 3.297234265 -s 1 -d -1 -p tcp -e 1040 -c 2 -a 0 -i 19 -k AGT 
- -t 3.297234265 -s 1 -d -1 -p tcp -e 1040 -c 2 -a 0 -i 19 -k AGT
h -t 3.297234265 -s 1 -d -1 -p tcp -e 1040 -c 2 -a 0 -i 19 -k AGT
+ -t 3.297234265 -s 1 -d -1 -p tcp -e 1040 -c 2 -a 0 -i 20 -k AGT 
- -t 3.297234265 -s 1 -d -1 -p tcp -e 1040 -c 2 -a 0 -i 20 -k AGT
h -t 3.297234265 -s 1 -d -1 -p tcp -e 1040 -c 2 -a 0 -i 20 -k AGT
+ -t 3.297234265 -s 1 -d 5 -p tcp -e 1040 -c 2 -a 0 -i 19 -k RTR 
- -t 3.297234265 -s 1 -d 5 -p tcp -e 1040 -c 2 -a 0 -i 19 -k RTR
h -t 3.297234265 -s 1 -d 5 -p tcp -e 1040 -c 2 -a 0 -i 19 -k RTR
+ -t 3.297234265 -s 1 -d 5 -p tcp -e 1040 -c 2 -a 0 -i 20 -k RTR 
- -t 3.297234265 -s 1 -d 5 -p tcp -e 1040 -c 2 -a 0 -i 20 -k RTR
h -t 3.297234265 -s 1 -d 5 -p tcp -e 1040 -c 2 -a 0 -i 20 -k RTR
r -t 3.299079942 -s 1 -d 1 -p ack -e 40 -c 2 -a 0 -i 13 -k AGT
+ -t 3.299079942 -s 1 -d -1 -p tcp -e 1040 -c 2 -a 0 -i 21 -k AGT 
- -t 3.299079942 -s 1 -d -1 -p tcp -e 1040 -c 2 -a 0 -i 21 -k AGT
h -t 3.299079942 -s 1 -d -1 -p tcp -e 1040 -c 2 -a 0 -i 21 -k AGT
+ -t 3.299079942 -s 1 -d -1 -p tcp -e 1040 -c 2 -a 0 -i 22 -k AGT 
- -t 3.299079942 -s 1 -d -1 -p tcp -e 1040 -c 2 -a 0 -i 22 -k AGT
h -t 3.299079942 -s 1 -d -1 -p tcp -e 1040 -c 2 -a 0 -i 22 -k AGT
+ -t 3.299079942 -s 1 -d 5 -p tcp -e 1040 -c 2 -a 0 -i 21 -k RTR 
- -t 3.299079942 -s 1 -d 5 -p tcp -e 1040 -c 2 -a 0 -i 21 -k RTR
h -t 3.299079942 -s 1 -d 5 -p tcp -e 1040 -c 2 -a 0 -i 21 -k RTR
+ -t 3.299079942 -s 1 -d 5 -p tcp -e 1040 -c 2 -a 0 -i 22 -k RTR 
- -t 3.299079942 -s 1 -d 5 -p tcp -e 1040 -c 2 -a 0 -i 22 -k RTR
h -t 3.299079942 -s 1 -d 5 -p tcp -e 1040 -c 2 -a 0 -i 22 -k RTR
+ -t 3.308926582 -s 0 -d 2 -p tcp -e 1040 -c 2 -a 0 -i 15 -k RTR 
- -t 3.308926582 -s 0 -d 2 -p tcp -e 1040 -c 2 -a 0 -i 15 -k RTR
h -t 3.308926582 -s 0 -d 2 -p tcp -e 1040 -c 2 -a 0 -i 15 -k RTR
r -t 3.319251753 -s 2 -d 2 -p tcp -e 1040 -c 2 -a 0 -i 15 -k AGT
+ -t 3.319251753 -s 2 -d -1 -p ack -e 40 -c 2 -a 0 -i 23 -k AGT 
- -t 3.319251753 -s 2 -d -1 -p ack -e 40 -c 2 -a 0 -i 23 -k AGT
h -t 3.319251753 -s 2 -d -1 -p ack -e 40 -c 2 -a 0 -i 23 -k AGT
+ -t 3.319251753 -s 2 -d 0 -p ack -e 40 -c 2 -a 0 -i 23 -k RTR 
- -t 3.319251753 -s 2 -d 0 -p ack -e 40 -c 2 -a 0 -i 23 -k RTR
h -t 3.319251753 -s 2 -d 0 -p ack -e 40 -c 2 -a 0 -i 23 -k RTR
+ -t 3.321096924 -s 0 -d 5 -p ack -e 40 -c 2 -a 0 -i 18 -k RTR 
- -t 3.321096924 -s 0 -d 5 -p ack -e 40 -c 2 -a 0 -i 18 -k RTR
h -t 3.321096924 -s 0 -d 5 -p ack -e 40 -c 2 -a 0 -i 18 -k RTR
+ -t 3.322942485 -s 0 -d 5 -p ack -e 40 -c 2 -a 0 -i 23 -k RTR 
- -t 3.322942485 -s 0 -d 5 -p ack -e 40 -c 2 -a 0 -i 23 -k RTR
h -t 3.322942485 -s 0 -d 5 -p ack -e 40 -c 2 -a 0 -i 23 -k RTR
+ -t 3.324988702 -s 5 -d 1 -p ack -e 40 -c 2 -a 0 -i 18 -k RTR 
- -t 3.324988702 -s 5 -d 1 -p ack -e 40 -c 2 -a 0 -i 18 -k RTR
h -t 3.324988702 -s 5 -d 1 -p ack -e 40 -c 2 -a 0 -i 18 -k RTR
+ -t 3.335064376 -s 5 -d 0 -p tcp -e 1040 -c 2 -a 0 -i 16 -k RTR 
- -t 3.335064376 -s 5 -d 0 -p tcp -e 1040 -c 2 -a 0 -i 16 -k RTR
h -t 3.335064376 -s 5 -d 0 -p tcp -e 1040 -c 2 -a 0 -i 16 -k RTR
r -t 3.337029633 -s 1 -d 1 -p ack -e 40 -c 2 -a 0 -i 18 -k AGT
+ -t 3.337029633 -s 1 -d -1 -p tcp -e 1040 -c 2 -a 0 -i 24 -k AGT 
- -t 3.337029633 -s 1 -d -1 -p tcp -e 1040 -c 2 -a 0 -i 24 -k AGT
h -t 3.337029633 -s 1 -d -1 -p tcp -e 1040 -c 2 -a 0 -i 24 -k AGT
+ -t 3.337029633 -s 1 -d -1 -p tcp -e 1040 -c 2 -a 0 -i 25 -k AGT 
- -t 3.337029633 -s 1 -d -1 -p tcp -e 1040 -c 2 -a 0 -i 25 -k AGT
h -t 3.337029633 -s 1 -d -1 -p tcp -e 1040 -c 2 -a 0 -i 25 -k AGT
+ -t 3.337029633 -s 1 -d 5 -p tcp -e 1040 -c 2 -a 0 -i 24 -k RTR 
- -t 3.337029633 -s 1 -d 5 -p tcp -e 1040 -c 2 -a 0 -i 24 -k RTR
h -t 3.337029633 -s 1 -d 5 -p tcp -e 1040 -c 2 -a 0 -i 24 -k RTR
+ -t 3.337029633 -s 1 -d 5 -p tcp -e 1040 -c 2 -a 0 -i 25 -k RTR 
- -t 3.337029633 -s 1 -d 5 -p tcp -e 1040 -c 2 -a 0 -i 25 -k RTR
h -t 3.337029633 -s 1 -d 5 -p tcp -e 1040 -c 2 -a 0 -i 25 -k RTR
+ -t 3.347114891 -s 5 -d 0 -p tcp -e 1040 -c 2 -a 0 -i 17 -k RTR 
- -t 3.347114891 -s 5 -d 0 -p tcp -e 1040 -c 2 -a 0 -i 17 -k RTR
h -t 3.347114891 -s 5 -d 0 -p tcp -e 1040 -c 2 -a 0 -i 17 -k RTR
+ -t 3.349111841 -s 5 -d 1 -p ack -e 40 -c 2 -a 0 -i 23 -k RTR 
- -t 3.349111841 -s 5 -d 1 -p ack -e 40 -c 2 -a 0 -i 23 -k RTR
h -t 3.349111841 -s 5 -d 1 -p ack -e 40 -c 2 -a 0 -i 23 -k RTR
+ -t 3.359018055 -s 0 -d 2 -p tcp -e 1040 -c 2 -a 0 -i 16 -k RTR 
- -t 3.359018055 -s 0 -d 2 -p tcp -e 1040 -c 2 -a 0 -i 16 -k RTR
h -t 3.359018055 -s 0 -d 2 -p tcp -e 1040 -c 2 -a 0 -i 16 -k RTR
r -t 3.368963226 -s 2 -d 2 -p tcp -e 1040 -c 2 -a 0 -i 16 -k AGT
+ -t 3.368963226 -s 2 -d -1 -p ack -e 40 -c 2 -a 0 -i 26 -k AGT 
- -t 3.368963226 -s 2 -d -1 -p ack -e 40 -c 2 -a 0 -i 26 -k AGT
h -t 3.368963226 -s 2 -d -1 -p ack -e 40 -c 2 -a 0 -i 26 -k AGT
+ -t 3.368963226 -s 2 -d 0 -p ack -e 40 -c 2 -a 0 -i 26 -k RTR 
- -t 3.368963226 -s 2 -d 0 -p ack -e 40 -c 2 -a 0 -i 26 -k RTR
h -t 3.368963226 -s 2 -d 0 -p ack -e 40 -c 2 -a 0 -i 26 -k RTR
+ -t 3.370968398 -s 0 -d 5 -p ack -e 40 -c 2 -a 0 -i 26 -k RTR 
- -t 3.370968398 -s 0 -d 5 -p ack -e 40 -c 2 -a 0 -i 26 -k RTR
h -t 3.370968398 -s 0 -d 5 -p ack -e 40 -c 2 -a 0 -i 26 -k RTR
+ -t 3.373034609 -s 5 -d 1 -p ack -e 40 -c 2 -a 0 -i 26 -k RTR 
- -t 3.373034609 -s 5 -d 1 -p ack -e 40 -c 2 -a 0 -i 26 -k RTR
h -t 3.373034609 -s 5 -d 1 -p ack -e 40 -c 2 -a 0 -i 26 -k RTR
+ -t 3.383050281 -s 5 -d 0 -p tcp -e 1040 -c 2 -a 0 -i 19 -k RTR 
- -t 3.383050281 -s 5 -d 0 -p tcp -e 1040 -c 2 -a 0 -i 19 -k RTR
h -t 3.383050281 -s 5 -d 0 -p tcp -e 1040 -c 2 -a 0 -i 19 -k RTR
+ -t 3.392875957 -s 5 -d 0 -p tcp -e 1040 -c 2 -a 0 -i 20 -k RTR 
- -t 3.392875957 -s 5 -d 0 -p tcp -e 1040 -c 2 -a 0 -i 20 -k RTR
h -t 3.392875957 -s 5 -d 0 -p tcp -e 1040 -c 2 -a 0 -i 20 -k RTR
+ -t 3.402782166 -s 0 -d 2 -p tcp -e 1040 -c 2 -a 0 -i 17 -k RTR 
- -t 3.402782166 -s 0 -d 2 -p tcp -e 1040 -c 2 -a 0 -i 17 -k RTR
h -t 3.402782166 -s 0 -d 2 -p tcp -e 1040 -c 2 -a 0 -i 17 -k RTR
r -t 3.413167337 -s 2 -d 2 -p tcp -e 1040 -c 2 -a 0 -i 17 -k AGT
+ -t 3.413167337 -s 2 -d -1 -p ack -e 40 -c 2 -a 0 -i 27 -k AGT 
- -t 3.413167337 -s 2 -d -1 -p ack -e 40 -c 2 -a 0 -i 27 -k AGT
h -t 3.413167337 -s 2 -d -1 -p ack -e 40 -c 2 -a 0 -i 27 -k AGT
+ -t 3.413167337 -s 2 -d 0 -p ack -e 40 -c 2 -a 0 -i 27 -k RTR 
- -t 3.413167337 -s 2 -d 0 -p ack -e 40 -c 2 -a 0 -i 27 -k RTR
h -t 3.413167337 -s 2 -d 0 -p ack -e 40 -c 2 -a 0 -i 27 -k RTR
r -t 3.415397462 -s 1 -d 1 -p ack -e 40 -c 2 -a 0 -i 23 -k AGT
+ -t 3.415397462 -s 1 -d -1 -p tcp -e 1040 -c 2 -a 0 -i 28 -k AGT 
- -t 3.415397462 -s 1 -d -1 -p tcp -e 1040 -c 2 -a 0 -i 28 -k AGT
h -t 3.415397462 -s 1 -d -1 -p tcp -e 1040 -c 2 -a 0 -i 28 -k AGT
+ -t 3.415397462 -s 1 -d -1 -p tcp -e 1040 -c 2 -a 0 -i 29 -k AGT 
- -t 3.415397462 -s 1 -d -1 -p tcp -e 1040 -c 2 -a 0 -i 29 -k AGT
h -t 3.415397462 -s 1 -d -1 -p tcp -e 1040 -c 2 -a 0 -i 29 -k AGT
+ -t 3.415397462 -s 1 -d 5 -p tcp -e 1040 -c 2 -a 0 -i 28 -k RTR 
- -t 3.415397462 -s 1 -d 5 -p tcp -e 1040 -c 2 -a 0 -i 28 -k RTR
h -t 3.415397462 -s 1 -d 5 -p tcp -e 1040 -c 2 -a 0 -i 28 -k RTR
+ -t 3.415397462 -s 1 -d 5 -p tcp -e 1040 -c 2 -a 0 -i 29 -k RTR 
- -t 3.415397462 -s 1 -d 5 -p tcp -e 1040 -c 2 -a 0 -i 29 -k RTR
h -t 3.415397462 -s 1 -d 5 -p tcp -e 1040 -c 2 -a 0 -i 29 -k RTR
+ -t 3.425482718 -s 5 -d 0 -p tcp -e 1040 -c 2 -a 0 -i 21 -k RTR 
- -t 3.425482718 -s 5 -d 0 -p tcp -e 1040 -c 2 -a 0 -i 21 -k RTR
h -t 3.425482718 -s 5 -d 0 -p tcp -e 1040 -c 2 -a 0 -i 21 -k RTR
+ -t 3.435448392 -s 5 -d 0 -p tcp -e 1040 -c 2 -a 0 -i 22 -k RTR 
- -t 3.435448392 -s 5 -d 0 -p tcp -e 1040 -c 2 -a 0 -i 22 -k RTR
h -t 3.435448392 -s 5 -d 0 -p tcp -e 1040 -c 2 -a 0 -i 22 -k RTR
r -t 3.437413648 -s 1 -d 1 -p ack -e 40 -c 2 -a 0 -i 26 -k AGT
+ -t 3.437413648 -s 1 -d -1 -p tcp -e 1040 -c 2 -a 0 -i 30 -k AGT 
- -t 3.437413648 -s 1 -d -1 -p tcp -e 1040 -c 2 -a 0 -i 30 -k AGT
h -t 3.437413648 -s 1 -d -1 -p tcp -e 1040 -c 2 -a 0 -i 30 -k AGT
+ -t 3.437413648 -s 1 -d -1 -p tcp -e 1040 -c 2 -a 0 -i 31 -k AGT 
- -t 3.437413648 -s 1 -d -1 -p tcp -e 1040 -c 2 -a 0 -i 31 -k AGT
h -t 3.437413648 -s 1 -d -1 -p tcp -e 1040 -c 2 -a 0 -i 31 -k AGT
+ -t 3.437413648 -s 1 -d 5 -p tcp -e 1040 -c 2 -a 0 -i 30 -k RTR 
- -t 3.437413648 -s 1 -d 5 -p tcp -e 1040 -c 2 -a 0 -i 30 -k RTR
h -t 3.437413648 -s 1 -d 5 -p tcp -e 1040 -c 2 -a 0 -i 30 -k RTR
+ -t 3.437413648 -s 1 -d 5 -p tcp -e 1040 -c 2 -a 0 -i 31 -k RTR 